# vtk DataFile Version 4.0
vtk output
ASCII
DATASET POLYDATA
POINTS 2306 float
17 36 5.89748 17 35.824 6 16.8131 36 6 
18 36 5.92895 18 35.8964 6 18.1036 36 6 
17 37 5.83028 16.7165 37 6 18 37 5.70014 
18.6164 37 6 17 37.33 6 17.8393 38 6 
18 38 5.92895 18.5373 38 6 18 38.0985 6 
17 34 6.98437 17 33.9756 7 16.9439 34 7 
17.0497 34 7 16 35 6.72656 16 34.4683 7 
15.4683 35 7 17 35 6.44127 18 34.4424 7 
18 35 6.6237 18.5886 35 7 15 36 6.83028 
15 35.5866 7 14.7165 36 7 16 36 6.39552 
19 36 6.6237 19 35.4114 7 19.5576 36 7 
15 37 6.83028 14.7165 37 7 16 37 6.39552 
19 37 6.21041 20 36.5748 7 20 37 6.78959 
20.2753 37 7 15 37.3103 7 15.7928 38 7 
16 38 6.88508 17 38 6.39018 19 38 6.06054 
20 38 6.60372 20.462 38 7 16 38.1149 7 
17 38.6098 7 18 39 6.81489 17.7153 39 7 
19 39 6.64545 19.9827 39 7 20 38.9872 7 
18 39.1418 7 19 39.2782 7 16 32 7.98437 
16 31.9768 8 15.9222 32 8 16.0661 32 8 
14 33 7.89748 14 32.8131 8 13.8353 33 8 
15 33 7.64708 15 32.2999 8 16 33 7.5459 
17 32.3021 8 17 33 7.54994 18 33 7.78959 
18 32.712 8 18.4252 33 8 14 34 7.70014 
13.5239 34 8 15 34 7.45704 16 34 7.23192 
18 34 7.27344 19 33.5 8 19 34 7.72656 
19.5 34 8 14 35 7.60448 13.2835 35 8 
15 35 7.23192 19 35 7.24898 20 34.5 8 
20 35 7.72656 20.4424 35 8 13 36 7.83028 
13 35.5 8 12.7583 36 8 14 36 7.39552 
20 36 7.27344 21 35.67 8 21 36 7.81728 
21.2194 36 8 13 37 7.85824 12.8149 37 8 
14 37 7.39552 21 37 7.55394 21.4817 37 8 
13 37.2342 8 13.8198 38 8 14 38 7.88508 
15 38 7.44657 21 38 7.5 21.5 38 8 
14 38.1149 8 15 38.4832 8 16 38.7896 8 
17 39 7.58858 16.4565 39 8 20 39 7.00821 
21 39 7.78944 21.2194 39 8 17 39.2319 8 
18 39.457 8 19 39.543 8 20 39.5922 8 
21 39.2291 8 14 31 8.85824 14 30.8149 9 
13.7519 31 9 15 31 8.65793 15 30.5633 9 
16 31 8.60372 16 30.538 9 17 31 8.78959 
17 30.7247 9 17.5 31 9 13 32 8.81728 
13 31.7101 9 12.7806 32 9 14 32 8.39552 
15 32 8.16972 17 32 8.21041 18 31.288 9 
18 32 8.5 19 32 8.81728 19 31.7709 9 
19.2899 32 9 13 33 8.5 12.3535 33 9 
19 33 8.27344 20 32.6332 9 20 33 8.75102 
20.3668 33 9 12 34 8.85824 12 33.666 9 
11.8149 34 9 13 34 8.34207 20 34 8.27344 
21 33.7101 9 21 34 8.81728 21.2194 34 9 
12 35 8.65793 11.5633 35 9 13 35 8.16972 
21 35 8.3763 21.7034 35 9 12 36 8.55394 
11.5183 36 9 22 36 8.71481 22 35.5 9 
22.2852 36 9 12 37 8.71481 11.7148 37 9 
22 37 8.5 22.5 37 9 12 37.3668 9 
13 38 8.68277 12.6662 38 9 22 38 8.5 
22.5 38 9 13 38.2071 9 14 38.5547 9 
15 38.9395 9 16 39 8.38355 15.1488 39 9 
22 39 8.78057 22.2106 39 9 16 39.2999 9 
17 39.457 9 18 39.5 9 19 39.5975 9 
20 39.9395 9 21 39.9937 9 22 39.2291 9 
14 30 9.71481 14 29.7148 10 13.614 30 10 
15 30 9.5 15 29.5 10 16 30 9.5 
16 29.5 10 17 30 9.55394 17 29.5183 10 
18 30 9.81728 18 29.7806 10 18.2899 30 10 
13 31 9.52039 13 30.5 10 12.5 31 10 
18 31 9.21041 19 30.5713 10 19 31 9.64671 
19.4488 31 10 12 32 9.71481 12 31.614 10 
11.7148 32 10 20 32 9.52039 20 31.5 10 
20.5 32 10 12 33 9.31173 11.2852 33 10 
21 33 9.52039 21 32.5 10 21.5 33 10 
11 34 9.71481 11 33.5 10 10.7148 34 10 
22 34 9.71481 22 33.614 10 22.2852 34 10 
11 35 9.5 10.5 35 10 22 35 9.28519 
22.7148 35 10 11 36 9.5183 10.5539 36 10 
23 36 9.71481 23 35.5 10 23.2852 36 10 
11 37 9.85965 10.8893 37 10 23 37 9.5 
23.5 37 10 11 37.1404 10 12 38 9.75195 
11.8149 38 10 23 38 9.5183 23.4461 38 10 
12 38.1418 10 13 38.457 10 14 38.543 10 
15 38.7681 10 15.5866 39 10 22.9918 39 10 
23 38.9881 10 16 39.1697 10 17 39.2999 10 
18 39.2999 10 19 39.3955 10 20 39.7266 10 
21 39.9395 10 22 39.5922 10 14 29 10.7148 
14 28.7148 11 13.614 29 11 15 29 10.5 
15 28.5 11 16 29 10.5 16 28.4817 11 
17 29 10.5 17 28.4582 11 18 29 10.7148 
18 28.7034 11 18.386 29 11 13 30 10.5 
13 29.5 11 12.5 30 11 19 30 10.5204 
19 29.5 11 19.5 30 11 12 31 10.5 
12 30.5 11 11.5204 31 11 20 31 10.5 
20 30.5 11 20.5 31 11 11 32 10.7806 
11 31.7101 11 10.8173 32 11 21 32 10.5 
21 31.5 11 21.5 32 11 11 33 10.2966 
10.3763 33 11 22 33 10.5 22 32.5 11 
22.4796 33 11 10 34 10.8149 10 33.7153 11 
9.85824 34 11 23 34 10.7806 23 33.7101 11 
23.1827 34 11 10 35 10.5866 9.70014 35 11 
23 35 10.2966 23.6237 35 11 10 36 10.8438 
9.89748 36 11 24 36 10.8149 24 35.7153 11 
24.1418 36 11 10 36.1562 11 10.5539 37 11 
24 37 10.5866 24.2999 37 11 11 37.4817 11 
11.5866 38 11 24 38 10.8438 24.1025 38 11 
12 38.2999 11 13 38.5 11 14 38.5 11 
15 38.543 11 16 38.6045 11 16 39 10.2835 
17 38.5383 11 17 39 10.4312 18 38.4582 11 
18 39 10.4134 19 38.6762 11 19 39 10.6106 
19.5317 39 11 23 39 10.0173 23.3546 39 11 
24 38.1562 11 20 39.249 11 21 39.5547 11 
22 39.543 11 23 39.2782 11 14 28 11.6883 
14 27.6607 12 13.4683 28 12 15 28 11.5 
15 27.5 12 16 28 11.4461 16 27.3649 12 
17 28 11.3875 17 27.1651 12 18 28 11.6237 
18 27.5226 12 18.5886 28 12 13 29 11.4796 
13 28.3668 12 12.4287 29 12 19 29 11.4796 
19 28.3668 12 19.5713 29 12 12 30 11.5 
12 29.4488 12 11.5 30 12 20 30 11.5 
20 29.4488 12 20.5 30 12 11 31 11.5713 
11 30.5512 12 10.6467 31 12 21 31 11.5 
21 30.5 12 21.5 31 12 10.2104 32 12 
22 32 11.5 22 31.5 12 22.4796 32 12 
10 33 11.5886 10 32.4565 12 9.76808 33 12 
23 33 11.6332 23 32.6332 12 23.249 33 12 
9.54296 34 12 23.7266 34 12 9.5 35 12 
24 34.5 12 24 35 11.5576 24.2734 35 12 
9.70014 36 12 24.6045 36 12 10 36.4134 12 
10.5183 37 12 18 37 11.9844 17.9601 37 12 
18 36.9768 12 18.0399 37 12 24.7001 37 12 
11 37.4461 12 11.8438 38 12 17 38 11.592 
16.2847 38 12 17 37.5 12 18 38 11.3875 
19 37.5248 12 19 38 11.6467 19.4488 38 12 
24.4266 38 12 12 38.1025 12 13 38.2999 12 
14 38.2999 12 15 38.2999 12 16 38.1418 12 
20 38.4796 12 20 39 11.3668 20.7519 39 12 
23.1647 39 12 24 38.4421 12 21 39.1418 12 
22 39.2999 12 23 39.1025 12 13 27 12.8173 
13 26.7806 13 12.67 27 13 14 27 12.5539 
14 26.5183 13 15 27 12.5 15 26.5 13 
16 27 12.3649 16 26.4461 13 17 27 12.1651 
17 26.3875 13 18 27 12.4466 18 26.5168 13 
19 27 12.9651 19 26.9665 13 19.0413 27 13 
12 28 12.7896 12 27.6301 13 11.712 28 13 
13 28 12.249 19 28 12.2577 20 27.9587 13 
20 28 12.9651 20.0335 28 13 12 29 12.3533 
11.2291 29 13 20 29 12.3668 20.6098 29 13 
11 30 12.4796 11 29.2899 13 10.4532 30 13 
21 30 12.5512 21 29.5248 13 21.3533 30 13 
10 31 12.8064 10 30.7153 13 9.85824 31 13 
22 31 12.614 22 30.7034 13 22.2852 31 13 
10 32 12.3205 9.60448 32 13 23 32 12.7101 
23 31.7806 13 23.1827 32 13 9.39552 33 13 
23.7266 33 13 9.29986 34 13 24 33.5317 13 
24 34 12.5317 24.2319 34 13 9.35292 35 13 
24.6045 35 13 9.65793 36 13 17 36 12.9665 
16.9651 36 13 17 35.9587 13 18 35.538 13 
18 36 12.6037 19 35.8596 13 19 36 12.8893 
19.1472 36 13 25 35.8131 13 25 36 12.8131 
25.1025 36 13 10 36.4367 13 10.5633 37 13 
17 37 12.3902 16.309 37 13 19 37 12.3763 
19.7709 37 13 25 37 12.5 25.2999 37 13 
11 37.3421 13 12 37.6471 13 12 38 12.1992 
13 37.7001 13 13 38 12.5 14 37.7001 13 
14 38 12.5 15 37.6579 13 15 38 12.4761 
16 37.2966 13 16 38 12.1936 20 37.2899 13 
20 38 12.4796 20.7101 38 13 24.9272 38 13 
25 37.896 13 21 38.2194 13 21 39 12.1851 
22 38.4817 13 22 39 12.4134 23 38.5 13 
23 39 12.1647 24 38.4379 13 13 26 13.9015 
13 25.929 14 12.8834 26 14 14 26 13.5866 
14 25.7001 14 15 26 13.5866 15 25.7001 14 
16 26 13.5688 16 25.7001 14 17 26 13.5455 
17 25.7001 14 18 26 13.8353 18 25.8975 14 
18.1647 26 14 12 27 13.4244 12 26.5168 14 
11.0109 27 14 19 26.5 14 19.6465 27 14 
11 28 13.5 11 27.0102 14 10.3535 28 14 
20 27.3238 14 20.6237 28 14 10 29 13.8173 
10 28.617 14 9.78057 29 14 11 29 13.1827 
21 28.5886 14 21 29 13.5886 21.2319 29 14 
10 30 13.408 9.4617 30 14 21.6579 30 14 
9.34207 31 14 22 30.4367 14 22.5 31 14 
9.16972 32 14 23 31.5183 14 23.4461 32 14 
9 33 13.7165 9 32.5 14 8.83028 33 14 
24 32.7583 14 24 33 13.617 24.1697 33 14 
9 34 13.5 8.70014 34 14 24.3944 34 14 
9 35 13.8008 8.89748 35 14 17 35 13.7894 
16.7604 35 14 17 34.7806 14 18 34.4817 14 
18 35 13.5 19 34.6279 14 19 35 13.6883 
19.5676 35 14 24.4421 35 14 9 35.1562 14 
9.57337 36 14 16.1195 36 14 20 35.3767 14 
20 36 13.6237 20.5886 36 14 25 35.9373 14 
25.0387 36 14 10 36.4266 14 10.8438 37 14 
16 37 13.3337 15.1207 37 14 16 36.1701 14 
20 37 13.1827 21 36.4683 14 21 37 13.7266 
21.617 37 14 25.3335 37 14 11 37.1025 14 
12 37.3529 14 13 37.4112 14 14 37.3336 14 
15 37.0736 14 21 38 13.1827 22 37.2417 14 
22 38 13.4461 23 37.5643 14 23 38 13.6203 
23.8226 38 14 24.4842 38 14 25 37.8304 14 
24 38.0736 14 13 25.7001 15 12.4386 26 15 
14 25.5 15 15 25.5 15 16 25.5 15 
17 25.5 15 18 25.7001 15 18.4761 26 15 
10 27 14.8659 10 26.8805 15 9.84382 27 15 
11 27 14.0087 11 26.4586 15 12 26.2429 15 
19 26.3421 15 20 27 14.7234 20 26.8881 15 
20.1342 27 15 10 28 14.3117 9.18511 28 15 
20.9788 28 15 9 29 14.6883 9 28.334 15 
8.6279 29 15 21 28.0366 15 21.4112 29 15 
9 30 14.4817 8.4817 30 15 21.7001 30 15 
9 31 14.4548 8.55394 31 15 22 30.4134 15 
22.5 31 15 9 32 14.2835 8.60448 32 15 
23 31.5183 15 23.4461 32 15 8.54296 33 15 
24 32.8897 15 24.071 33 15 8.54296 34 15 
17 34 14.7148 16.5643 34 15 17 33.7034 15 
18 33.2753 15 18 34 14.4461 19 33.0303 15 
19 34 14.4413 20 33.4651 15 20 34 14.6232 
21 33.92 15 21 34 14.9264 21.1774 34 15 
24 34 14.9886 23.9881 34 15 24 33.9275 15 
8.85824 35 15 16 35 14.6098 15.5 35 15 
16 34.4752 15 20 35 14.2071 21 35 14.5 
22 34.4357 15 22 35 14.6471 23 34.5688 15 
23 35 14.7001 24 35 14.4421 9 35.1851 15 
9.78057 36 15 15 36 14.751 14.5886 36 15 
15 35.5886 15 16 36 14.1149 21 36 14.2319 
22 36 14.457 23 36 14.5 24 36 14.4857 
25 36 14.0472 10 36.1827 15 11 36.6045 15 
11 37 14.1869 12 36.7896 15 12 37 14.662 
13 36.885 15 13 37 14.8431 14 36.4774 15 
14 37 14.4909 15 37 14.08 22 37 14.1697 
23 37 14.3529 24 37 14.5547 25 37 14.4506 
24 38 14.08 13 25.7001 16 12.343 26 16 
14 25.5 16 15 25.5 16 16 25.5 16 
17 25.543 16 18 25.8303 16 18.2835 26 16 
9 27 15.6454 9 26.7129 16 8.11424 27 16 
10 26.4586 16 11 26.2669 16 12 26.1697 16 
19 26.3955 16 20 26.9264 16 20.08 27 16 
8 28 15.6045 8 27.0809 16 7.41643 28 16 
9 28 15.1418 20.7266 28 16 8 29 15.4413 
7.17273 29 16 21 28.5317 16 21.2319 29 16 
8 30 15.4617 7.42998 30 16 21.6579 30 16 
8 31 15.8024 7.85789 31 16 22 30.4548 16 
[...]
POINT_DATA 2306
SCALARS scalars unsigned_short
LOOKUP_TABLE default
1 1 1 1 1 1 1 1 1 
1 1 1 1 1 1 1 1 1 
1 1 1 1 1 1 1 1 1 
1 1 1 1 1 1 1 1 1 
1 1 1 1 1 1 1 1 1 
1 1 1 1 1 1 1 1 1 
1 1 1 1 1 1 1 1 1 
1 1 1 1 1 1 1 1 1 
1 1 1 1 1 1 1 1 1 
1 1 1 1 1 1 1 1 1 
1 1 1 1 1 1 1 1 1 
1 1 1 1 1 1 1 1 1 
1 1 1 1 1 1 1 1 1 
1 1 1 1 1 1 1 1 1 
1 1 1 1 1 1 1 1 1 
1 1 1 1 1 1 1 1 1 
1 1 1 1 1 1 1 1 1 
1 1 1 1 1 1 1 1 1 
1 1 1 1 1 1 1 1 1 
1 1 1 1 1 1 1 1 1 
1 1 1 1 1 1 1 1 1 
1 1 1 1 1 1 1 1 1 
1 1 1 1 1 1 1 1 1 
1 1 1 1 1 1 1 1 1 
1 1 1 1 1 1 1 1 1 
1 1 1 1 1 1 1 1 1 
1 1 1 1 1 1 1 1 1 
1 1 1 1 1 1 1 1 1 
1 1 1 1 1 1 1 1 1 
1 1 1 1 1 1 1 1 1 
1 1 1 1 1 1 1 1 1 
1 1 1 1 1 1 1 1 1 
1 1 1 1 1 1 1 1 1 
1 1 1 1 1 1 1 1 1 
1 1 1 1 1 1 1 1 1 
1 1 1 1 1 1 1 1 1 
1 1 1 1 1 1 1 1 1 
1 1 1 1 1 1 1 1 1 
1 1 1 1 1 1 1 1 1 
1 1 1 1 1 1 1 1 1 
1 1 1 1 1 1 1 1 1 
1 1 1 1 1 1 1 1 1 
1 1 1 1 1 1 1 1 1 
1 1 1 1 1 1 1 1 1 
1 1 1 1 1 1 1 1 1 
1 1 1 1 1 1 1 1 1 
1 1 1 1 1 1 1 1 1 
1 1 1 1 1 1 1 1 1 
1 1 1 1 1 1 1 1 1 
1 1 1 1 1 1 1 1 1 
1 1 1 1 1 1 1 1 1 
1 1 1 1 1 1 1 1 1 
1 1 1 1 1 1 1 1 1 
1 1 1 1 1 1 1 1 1 
1 1 1 1 1 1 1 1 1 
1 1 1 1 1 1 1 1 1 
1 1 1 1 1 1 1 1 1 
1 1 1 1 1 1 1 1 1 
1 1 1 1 1 1 1 1 1 
1 1 1 1 1 1 1 1 1 
1 1 1 1 1 1 1 1 1 
1 1 1 1 1 1 1 1 1 
1 1 1 1 1 1 1 1 1 
1 1 1 1 1 1 1 1 1 
1 1 1 1 1 1 1 1 1 
1 1 1 1 1 1 1 1 1 
1 1 1 1 1 1 1 1 1 
1 1 1 1 1 1 1 1 1 
1 1 1 1 1 1 1 1 1 
1 1 1 1 1 1 1 1 1 
1 1 1 1 1 1 1 1 1 
1 1 1 1 1 1 1 1 1 
1 1 1 1 1 1 1 1 1 
1 1 1 1 1 1 1 1 1 
1 1 1 1 1 1 1 1 1 
1 1 1 1 1 1 1 1 1 
1 1 1 1 1 1 1 1 1 
1 1 1 1 1 1 1 1 1 
1 1 1 1 1 1 1 1 1 
1 1 1 1 1 1 1 1 1 
1 1 1 1 1 1 1 1 1 
1 1 1 1 1 1 1 1 1 
1 1 1 1 1 1 1 1 1 
1 1 1 1 1 1 1 1 1 
1 1 1 1 1 1 1 1 1 
1 1 1 1 1 1 1 1 1 
1 1 1 1 1 1 1 1 1 
1 1 1 1 1 1 1 1 1 
1 1 1 1 1 1 1 1 1 
1 1 1 1 1 1 1 1 1 
1 1 1 1 1 1 1 1 1 
1 1 1 1 1 1 1 1 1 
1 1 1 1 1 1 1 1 1 
1 1 1 1 1 1 1 1 1 
1 1 1 1 1 1 1 1 1 
1 1 1 1 1 1 1 1 1 
1 1 1 1 1 1 1 1 1 
1 1 1 1 1 1 1 1 1 
1 1 1 1 1 1 1 1 1 
1 1 1 1 1 1 1 1 1 
1 1 1 1 1 1 1 1 1 
1 1 1 1 1 1 1 1 1 
1 1 1 1 1 1 1 1 1 
1 1 1 1 1 1 1 1 1 
1 1 1 1 1 1 1 1 1 
1 1 1 1 1 1 1 1 1 
1 1 1 1 1 1 1 1 1 
1 1 1 1 1 1 1 1 1 
1 1 1 1 1 1 1 1 1 
1 1 1 1 1 1 1 1 1 
1 1 1 1 1 1 1 1 1 
1 1 1 1 1 1 1 1 1 
1 1 1 1 1 1 1 1 1 
1 1 1 1 1 1 1 1 1 
1 1 1 1 1 1 1 1 1 
1 1 1 1 1 1 1 1 1 
1 1 1 1 1 1 1 1 2 
2 2 2 2 2 2 2 2 2 
2 2 2 2 2 2 2 2 2 
2 2 2 2 2 2 2 2 2 
2 2 2 2 2 2 2 2 2 
2 2 2 2 2 2 2 2 2 
2 2 2 2 2 2 2 2 2 
2 2 2 2 2 2 2 2 2 
2 2 2 2 2 2 2 2 2 
2 2 2 2 2 2 2 2 2 
2 2 2 2 2 2 2 2 2 
2 2 2 2 2 2 2 2 2 
2 2 2 2 2 2 2 2 2 
2 2 2 2 2 2 2 2 2 
2 2 2 2 2 2 2 2 2 
2 2 2 2 2 2 2 2 2 
2 2 2 2 2 2 2 2 2 
2 2 2 2 2 2 2 2 2 
2 2 2 2 2 2 2 2 2 
2 2 2 2 2 2 2 2 2 
2 2 2 2 2 2 2 2 2 
2 2 2 2 2 2 2 2 2 
2 2 2 2 2 2 2 2 2 
2 2 2 2 2 2 2 2 2 
2 2 2 2 2 2 2 2 2 
2 2 2 2 2 2 2 2 2 
2 2 2 2 2 2 2 2 2 
2 2 2 2 2 2 2 2 2 
2 2 2 2 2 2 2 2 2 
2 2 2 2 2 2 2 2 2 
2 2 2 2 2 2 2 2 2 
2 2 2 2 2 2 2 2 2 
2 2 2 2 2 2 2 2 2 
2 2 2 2 2 2 2 2 2 
2 2 2 2 2 2 2 2 2 
2 2 2 2 2 2 2 2 2 
2 2 2 2 2 2 2 2 2 
2 2 2 2 2 2 2 2 2 
2 2 2 2 2 2 2 2 2 
2 2 2 2 2 2 2 2 2 
2 2 2 2 2 2 2 2 2 
2 2 2 2 2 2 2 2 2 
2 2 2 2 2 2 2 2 2 
2 2 2 2 2 2 2 2 2 
2 2 2 2 2 2 2 2 2 
2 2 2 2 2 2 2 2 2 
2 2 2 2 2 2 2 2 2 
2 2 2 2 2 2 2 2 2 
2 2 2 2 2 2 2 2 2 
2 2 2 2 2 2 2 2 2 
2 2 2 2 2 2 2 2 2 
2 2 2 2 2 2 2 2 2 
2 2 2 2 2 2 2 2 2 
2 2 2 2 2 2 2 2 2 
2 2 2 2 2 2 2 2 2 
2 2 2 2 2 2 2 2 2 
2 2 2 2 2 2 2 2 2 
2 2 2 2 2 2 2 2 2 
2 2 2 2 2 2 2 2 2 
2 2 2 2 2 2 2 2 2 
2 2 2 2 2 2 2 2 2 
2 2 2 2 2 2 2 2 2 
2 2 2 2 2 2 2 2 2 
2 2 2 2 2 2 2 2 2 
2 2 2 2 2 2 2 2 2 
2 2 2 2 2 2 2 2 2 
2 2 2 2 2 2 2 2 2 
2 2 2 2 2 2 2 2 2 
2 2 2 2 2 2 2 2 2 
2 2 2 2 2 2 2 2 2 
2 2 2 2 2 2 2 2 2 
2 2 2 2 2 2 2 2 2 
2 2 2 2 2 2 2 2 2 
2 2 2 2 2 2 2 2 2 
2 2 2 2 2 2 2 2 2 
2 2 2 2 2 2 2 2 2 
2 2 2 2 2 2 2 2 2 
2 2 2 2 2 2 2 2 2 
2 2 2 2 2 2 2 2 2 
2 2 2 2 2 2 2 2 2 
2 2 2 2 2 2 2 2 2 
2 2 2 2 2 2 2 2 2 
2 2 2 2 2 2 2 2 2 
2 2 2 2 2 2 2 2 2 
2 2 2 2 2 2 2 2 2 
2 2 2 2 2 2 2 2 2 
2 2 2 2 2 2 2 2 2 
2 2 2 2 2 2 2 2 2 
2 2 2 2 2 2 2 2 2 
2 2 2 2 2 2 2 2 2 
2 2 2 2 2 2 2 2 2 
2 2 2 2 2 2 2 2 2 
2 2 2 2 2 2 2 2 2 
2 2 2 2 2 2 2 2 2 
2 2 2 2 2 2 2 2 2 
2 2 2 2 2 2 2 2 2 
2 2 2 2 2 2 2 2 2 
2 2 2 2 2 2 2 2 2 
2 2 2 2 2 2 2 2 2 
2 2 2 2 2 2 2 2 2 
2 2 2 2 2 2 2 2 2 
2 2 2 2 2 2 2 2 2 
2 2 2 2 2 2 2 2 2 
2 2 2 2 2 2 2 2 2 
2 2 2 2 2 2 2 2 2 
2 2 2 2 2 2 2 2 2 
2 2 2 2 2 2 2 2 2 
2 2 2 2 2 2 2 2 2 
2 2 2 2 2 2 2 2 2 
2 2 2 2 2 2 2 2 2 
2 2 2 2 2 2 2 2 2 
2 2 2 2 2 2 2 2 2 
2 2 2 2 2 2 2 2 2 
2 2 2 2 2 2 2 2 2 
2 2 2 2 2 2 2 2 2 
2 2 2 2 2 2 2 2 2 
2 2 2 2 2 2 2 2 2 
2 2 2 2 2 2 2 2 2 
2 2 2 2 2 2 2 2 2 
2 2 2 2 2 2 2 2 2 
2 2 2 2 2 2 2 2 2 
2 2 2 2 2 2 2 2 2 
2 2 2 2 2 2 2 2 2 
2 2 2 2 2 2 2 2 2 
2 2 2 2 2 2 2 2 2 
2 2 2 2 2 2 2 2 2 
2 2 2 2 2 2 2 2 2 
2 2 2 2 2 2 2 2 2 
2 2 2 2 2 2 2 2 2 
2 2 2 2 2 2 2 2 2 
2 2 2 2 2 2 2 2 2 
2 2 2 2 2 2 2 2 2 
2 2 2 2 2 2 2 2 2 
2 2 2 2 2 2 2 2 2 
2 2 2 2 2 2 2 2 2 
2 2 2 2 2 2 2 2 2 
2 2 2 2 2 2 2 2 2 
2 2 2 2 2 2 2 2 2 
2 2 2 2 2 2 2 2 2 
2 2 2 2 2 2 2 2 2 
2 2 
NORMALS normals float
-0.243767 -0.309315 -0.919186 -0.220852 -0.35332 -0.90906 -0.291463 -0.287856 -0.912244 
0.316541 -0.424577 -0.848255 0.317676 -0.447103 -0.83617 0.347064 -0.428846 -0.834049 
-0.357252 0.206539 -0.910886 -0.408186 0.203741 -0.889873 0.175085 -3.54885e-009 -0.984553 
0.41077 -0.160569 -0.897489 -0.387394 0.326237 -0.862262 -0.187307 0.477534 -0.858416 
-0.140469 0.455548 -0.879059 0.119476 0.320078 -0.939827 -0.151155 0.484025 -0.8619 
0.0149809 -0.536186 -0.843967 0.0164297 -0.536642 -0.84365 -0.000465566 -0.53186 -0.846832 
0.0315509 -0.536433 -0.843353 -0.376819 -0.407196 -0.831985 -0.325914 -0.423464 -0.845256 
-0.410518 -0.374622 -0.831344 -0.0619779 -0.510072 -0.857896 0.359549 -0.52055 -0.774437 
0.344254 -0.557125 -0.755712 0.440427 -0.502128 -0.744239 -0.494671 -0.182168 -0.849774 
-0.474106 -0.250558 -0.844064 -0.501104 -0.169375 -0.84865 -0.452827 -0.172038 -0.874843 
0.535943 -0.429262 -0.72698 0.494799 -0.466191 -0.733376 0.503796 -0.429446 -0.749511 
-0.48903 0.234757 -0.840083 -0.49521 0.226724 -0.838668 -0.471346 0.21345 -0.855729 
0.510793 -0.25599 -0.820707 0.535479 -0.344639 -0.77103 0.562221 -0.287046 -0.775573 
0.585615 -0.258998 -0.768098 -0.477694 0.346621 -0.807256 -0.406056 0.611453 -0.679149 
-0.406669 0.608172 -0.681724 -0.392761 0.573111 -0.719223 0.341328 0.175455 -0.923423 
0.599914 0.0686475 -0.797114 0.656276 0.0750986 -0.750774 -0.402624 0.635997 -0.658333 
-0.40577 0.699164 -0.588659 -0.28438 0.77574 -0.563343 -0.330655 0.775807 -0.537393 
0.0834959 0.744785 -0.66206 0.438839 0.59156 -0.67637 0.447643 0.581475 -0.67934 
-0.284783 0.809172 -0.513945 0.0544409 0.84689 -0.528974 0.0151321 -0.522532 -0.852485 
0.0157442 -0.524884 -0.851028 -0.00207703 -0.522999 -0.852331 0.0301999 -0.52707 -0.849285 
-0.404977 -0.341914 -0.847991 -0.392336 -0.367892 -0.843047 -0.436728 -0.32778 -0.837753 
-0.186827 -0.361531 -0.91345 -0.204868 -0.474507 -0.85608 -0.0587003 -0.390375 -0.918783 
0.211472 -0.557309 -0.802924 0.119908 -0.543099 -0.831063 0.318998 -0.535608 -0.781898 
0.312643 -0.552438 -0.772701 0.366087 -0.510268 -0.778208 -0.44108 -0.150367 -0.884781 
-0.512194 -0.156512 -0.844489 -0.261129 -0.234771 -0.936319 -0.251526 -0.407137 -0.878051 
0.343525 -0.493461 -0.799053 0.430987 -0.454164 -0.779734 0.438399 -0.442596 -0.78225 
0.451028 -0.443799 -0.774349 -0.456178 -0.171333 -0.873239 -0.500881 -0.219808 -0.837139 
-0.419626 -0.311311 -0.852643 0.464651 -0.464651 -0.75379 0.46347 -0.440618 -0.768799 
0.46187 -0.43362 -0.773724 0.501749 -0.43279 -0.748959 -0.529111 -0.135428 -0.837676 
-0.526011 -0.190402 -0.828891 -0.561972 -0.118781 -0.818583 -0.479147 -0.117076 -0.869892 
0.483115 -0.406333 -0.77556 0.571867 -0.36751 -0.73342 0.573744 -0.334539 -0.747597 
0.601479 -0.321702 -0.731253 -0.5516 0.261677 -0.791999 -0.578654 0.268001 -0.770283 
-0.476417 0.21279 -0.853081 0.652025 -0.140798 -0.74501 0.682272 -0.102286 -0.723908 
-0.560667 0.34495 -0.752769 -0.438546 0.638715 -0.632234 -0.420749 0.631893 -0.650908 
-0.375254 0.635235 -0.675027 0.696861 0.0850987 -0.71214 0.704037 0.0930743 -0.704037 
-0.416014 0.667809 -0.617223 -0.309419 0.77048 -0.557333 -0.334878 0.795263 -0.505385 
-0.37934 0.798045 -0.468216 -0.344004 0.818634 -0.459891 0.443383 0.588814 -0.675804 
0.577337 0.449869 -0.681396 0.591893 0.437823 -0.676737 -0.327419 0.862543 -0.385768 
-0.182426 0.963935 -0.193778 -0.0853358 0.978538 -0.187567 0.114679 0.886356 -0.448578 
0.523228 0.533146 -0.664821 -0.326858 -0.540123 -0.77552 -0.326296 -0.567752 -0.75577 
-0.381305 -0.548656 -0.744032 -0.121417 -0.564671 -0.816336 -0.0974342 -0.629864 -0.77057 
0.0597973 -0.615124 -0.786159 0.0546079 -0.661798 -0.747691 0.259761 -0.566773 -0.781852 
0.236839 -0.589054 -0.772608 0.302535 -0.562471 -0.76948 -0.534462 -0.391919 -0.748832 
-0.543026 -0.437696 -0.716621 -0.56974 -0.390326 -0.723217 -0.308898 -0.442275 -0.842006 
-0.199968 -0.4973 -0.844219 0.23658 -0.553966 -0.798217 0.324026 -0.557096 -0.764625 
0.277484 -0.575174 -0.769531 0.386067 -0.553919 -0.737649 0.392645 -0.570015 -0.721742 
0.431545 -0.560853 -0.70655 -0.572527 -0.227863 -0.787586 -0.616467 -0.302805 -0.726827 
0.414526 -0.463468 -0.783177 0.501492 -0.513045 -0.696628 0.478415 -0.478415 -0.736369 
0.513045 -0.501492 -0.696628 -0.561994 -0.270667 -0.781602 -0.590836 -0.296051 -0.750511 
-0.58543 -0.273667 -0.763137 -0.534444 -0.164236 -0.829094 0.457887 -0.437785 -0.773746 
0.562335 -0.446962 -0.695704 0.553569 -0.416265 -0.721308 0.579922 -0.40817 -0.705045 
-0.563 -0.143402 -0.813921 -0.629314 -0.105933 -0.769898 -0.503072 -0.233689 -0.832051 
0.568967 -0.402619 -0.717059 0.640403 -0.367947 -0.674166 -0.654526 0.0131682 -0.755925 
-0.688277 0.060624 -0.722911 0.671263 -0.293363 -0.680694 0.661255 -0.340514 -0.668425 
0.676396 -0.29151 -0.676396 -0.664914 0.334501 -0.667831 -0.678609 0.343897 -0.649018 
0.700759 -0.0846468 -0.708358 0.704596 -0.0841972 -0.704596 -0.638695 0.459561 -0.617149 
-0.485802 0.716734 -0.500289 -0.499447 0.723514 -0.476529 0.703523 0.100554 -0.703523 
0.706706 0.10859 -0.699125 -0.447048 0.791416 -0.416904 -0.377218 0.905872 -0.192621 
-0.406549 0.903803 -0.133634 -0.333791 0.857137 -0.392301 -0.39632 0.907694 -0.13792 
0.676737 0.437823 -0.591894 0.681396 0.449869 -0.577337 -0.279025 0.945451 -0.168131 
-0.124509 0.991593 -0.0352381 -0.0901952 0.991831 0.0901952 -0.243815 0.966143 0.0843919 
-0.239811 0.967293 -0.0826719 0.277589 0.919722 -0.277589 0.664821 0.533146 -0.523228 
-0.340363 -0.658071 -0.671636 -0.337335 -0.66566 -0.66566 -0.43121 -0.637988 -0.637988 
-0.0856368 -0.692163 -0.716643 -0.0841972 -0.704596 -0.704596 0.0244074 -0.699189 -0.71452 
0.0075854 -0.707086 -0.707086 0.140798 -0.652025 -0.74501 0.102286 -0.682272 -0.723908 
0.354466 -0.580572 -0.733001 0.344672 -0.603122 -0.719337 0.406065 -0.586022 -0.701206 
-0.5454 -0.552529 -0.630278 -0.551179 -0.582733 -0.59718 -0.582733 -0.551179 -0.59718 
0.345349 -0.545118 -0.763925 0.499762 -0.574147 -0.648532 0.456167 -0.582806 -0.672494 
0.521273 -0.580412 -0.625617 -0.643561 -0.399926 -0.652602 -0.627187 -0.461815 -0.627187 
-0.651518 -0.403395 -0.642492 0.543336 -0.566253 -0.619793 0.559696 -0.582402 -0.589532 
0.570253 -0.577321 -0.58439 -0.636829 -0.330242 -0.696699 -0.662814 -0.360153 -0.656481 
0.566253 -0.543336 -0.619793 0.577321 -0.570253 -0.58439 0.587473 -0.54886 -0.594666 
-0.668881 -0.294214 -0.682669 -0.668425 -0.340514 -0.661255 -0.682669 -0.294214 -0.668881 
0.642492 -0.403395 -0.651518 0.627187 -0.461815 -0.627187 0.651518 -0.403395 -0.642492 
-0.692599 -0.0779979 -0.717094 -0.721777 -0.061595 -0.689379 0.654079 -0.361148 -0.664645 
0.664645 -0.361148 -0.654079 -0.722913 0.120504 -0.68035 -0.756925 0.169263 -0.631202 
0.676396 -0.29151 -0.676396 0.668425 -0.340514 -0.661255 0.682669 -0.294214 -0.668881 
-0.752382 0.442419 -0.488044 -0.761435 0.458376 -0.458376 0.705025 -0.0766851 -0.705025 
0.721777 -0.061595 -0.689379 -0.749436 0.490526 -0.444669 -0.540073 0.747819 -0.38612 
-0.553613 0.765199 -0.328608 0.723217 0.151636 -0.673769 0.753082 0.196182 -0.627997 
-0.507236 0.798608 -0.323941 -0.220346 0.961463 -0.164428 -0.185826 0.981896 0.0367185 
-0.333854 0.914384 0.229007 -0.310743 0.895385 0.318943 0.669647 0.598791 -0.439343 
0.672137 0.592948 -0.443446 -0.265254 0.897611 0.352045 -0.0681238 0.903859 0.422371 
-0.0533288 0.88776 0.457208 -0.227674 0.881539 0.413587 -0.298459 0.886534 0.353524 
0.082284 0.962755 0.25755 0.448578 0.886356 -0.114679 -0.337335 -0.66566 -0.66566 
-0.336387 -0.663791 -0.668001 -0.429685 -0.635732 -0.641261 -0.0841972 -0.704596 -0.704596 
-0.0916949 -0.704128 -0.704128 0 -0.703283 -0.71091 -0.0172538 -0.685767 -0.727616 
0.0856368 -0.692163 -0.716643 0.0833968 -0.656029 -0.750114 0.341803 -0.65441 -0.674477 
0.345881 -0.64621 -0.680279 0.432091 -0.630447 -0.644852 -0.551208 -0.589987 -0.589987 
-0.54886 -0.587473 -0.594666 -0.572609 -0.579706 -0.579706 0.538624 -0.576521 -0.614417 
0.546513 -0.584962 -0.599286 0.570253 -0.577321 -0.58439 -0.594666 -0.54886 -0.587473 
-0.58439 -0.570253 -0.577321 -0.614417 -0.538624 -0.576521 0.566919 -0.582496 -0.582496 
0.57735 -0.57735 -0.57735 0.57735 -0.57735 -0.57735 -0.700459 -0.405515 -0.587294 
-0.688232 -0.442161 -0.575179 -0.714216 -0.412173 -0.565693 0.57735 -0.57735 -0.57735 
0.57735 -0.57735 -0.57735 0.57735 -0.57735 -0.57735 -0.674166 -0.367947 -0.640403 
-0.723715 -0.396752 -0.564645 0.594666 -0.54886 -0.587473 0.58439 -0.570253 -0.577321 
0.619793 -0.543336 -0.566253 -0.782483 -0.29535 -0.548169 -0.778967 -0.336316 -0.529246 
-0.810656 -0.294016 -0.506351 0.705045 -0.40817 -0.579922 0.695704 -0.446962 -0.562335 
0.721308 -0.416265 -0.553569 -0.814163 -0.00326085 -0.580628 -0.888865 0.0189314 -0.457777 
0.674166 -0.367947 -0.640403 0.71979 -0.3946 -0.571134 -0.829566 0.363491 -0.423905 
-0.840387 0.383243 -0.383243 0.765434 -0.288915 -0.575012 0.763132 -0.329479 -0.555944 
0.786498 -0.285255 -0.547769 -0.829566 0.423905 -0.363491 -0.758021 0.632116 -0.160727 
0.796008 -0.00318814 -0.605278 0.84901 0.0180826 -0.528067 -0.713347 0.693869 -0.0983977 
-0.583701 0.811962 -0.00327811 0.819524 0.359091 -0.44658 0.826632 0.37697 -0.417819 
-0.457777 0.888865 0.0189314 -0.118172 0.988913 0.0899298 -0.0282399 0.988822 0.146401 
-0.0647906 0.961218 0.268073 -0.00662903 0.873057 0.487573 -0.217539 0.88717 0.406946 
0.0689648 0.742237 0.66658 -0.0364032 0.834469 0.54985 -0.0526389 0.672125 0.738564 
-0.0607444 0.80782 0.58629 -0.310642 0.697425 0.645832 -0.277944 0.774257 0.568571 
-0.36768 0.739056 0.564454 0.67009 0.601859 -0.434448 0.636129 0.766749 -0.0862376 
0.818526 0.423356 -0.38831 -0.383016 0.774614 0.503262 -0.148978 0.903241 0.402444 
0.158984 0.972196 0.171927 0.517434 0.855042 -0.0341193 -0.292807 -0.650725 -0.700587 
-0.259247 -0.645772 -0.718171 -0.387316 -0.574591 -0.720993 -0.100554 -0.703523 -0.703523 
-0.112384 -0.702627 -0.702627 -0.0516901 -0.67007 -0.740496 -0.128136 -0.687807 -0.714495 
0.077188 -0.623062 -0.778355 0.0428661 -0.69305 -0.719614 0.349597 -0.600806 -0.718898 
0.348775 -0.607308 -0.713816 0.442857 -0.540234 -0.71556 -0.541919 -0.566871 -0.620468 
-0.489379 -0.523053 -0.697799 -0.566111 -0.51155 -0.646401 0.541919 -0.566871 -0.620468 
0.507511 -0.521162 -0.686165 0.569114 -0.514264 -0.641593 -0.582496 -0.566919 -0.582496 
-0.580412 -0.521273 -0.625617 -0.587473 -0.54886 -0.594666 0.582496 -0.566919 -0.582496 
0.583259 -0.52383 -0.620815 0.590201 -0.567192 -0.574418 -0.648532 -0.499762 -0.574147 
-0.625356 -0.514679 -0.586546 -0.674548 -0.45756 -0.57933 0.579706 -0.579706 -0.572609 
0.5873 -0.580109 -0.564404 0.589987 -0.589987 -0.551208 -0.769846 -0.365284 -0.523359 
0.58439 -0.577321 -0.570253 0.594666 -0.587473 -0.54886 0.619793 -0.566253 -0.543336 
-0.789621 -0.372416 -0.487652 -0.795578 -0.351627 -0.49337 -0.839641 -0.318726 -0.439791 
0.696628 -0.501492 -0.513045 0.696628 -0.513045 -0.501492 0.736369 -0.478415 -0.478415 
-0.941723 -0.151713 -0.300236 0.777637 -0.439986 -0.449102 -0.974716 0.0886387 -0.205115 
0.782303 -0.432408 -0.448358 0.763533 -0.416574 -0.49344 0.80589 -0.405916 -0.431015 
-0.882649 0.454576 -0.119547 0.86303 -0.222893 -0.453318 -0.808861 0.581472 -0.08738 
-0.697252 0.716825 0.00125289 0 0.557437 0.830219 0.0164118 0.55889 0.829079 
0 0.558203 0.829705 -0.0170053 0.558198 0.829533 0.86961 0.0757076 -0.4879 
-0.638912 0.766171 0.0690927 -0.432857 0.847085 0.308353 0.269087 0.668656 0.693174 
0.319478 0.738474 0.593792 0.390806 0.584126 0.711384 -0.0276188 0.60874 0.792889 
-0.443442 0.543997 0.712339 -0.397272 0.598494 0.695687 -0.493739 0.578613 0.649175 
0.789536 0.533428 -0.303461 -0.391413 0.858302 0.331833 -0.0993378 0.904084 0.415649 
0 0.908578 0.417715 0.0790258 0.892158 0.444758 0.288291 0.787638 0.544531 
-0.521392 0.62256 0.583583 -0.438366 0.72371 0.532991 -0.369349 0.749403 0.549525 
0.417853 0.848219 0.325459 0.690442 0.717411 -0.0927998 -0.314063 0.787311 0.53057 
0.0187328 0.879539 0.475459 0.375178 0.853762 0.361014 -0.337101 -0.580922 -0.740873 
-0.328651 -0.614471 -0.717227 -0.380836 -0.574277 -0.724686 -0.139409 -0.660623 -0.73766 
-0.104576 -0.697546 -0.708868 -0.0766851 -0.705025 -0.705025 -0.0324428 -0.72277 -0.690327 
-0.128136 -0.714495 -0.687807 -0.0529442 -0.758462 -0.649563 0.0332658 -0.719877 -0.693304 
0.0341263 -0.800016 -0.599008 0.294081 -0.675347 -0.676331 0.246893 -0.76105 -0.599872 
0.491136 -0.660875 -0.567477 0.491451 -0.6675 -0.559392 0.498146 -0.663336 -0.558423 
-0.521058 -0.395972 -0.756112 -0.506046 -0.444002 -0.739445 -0.540424 -0.369545 -0.755896 
-0.446875 -0.503551 -0.739418 0.487328 -0.51128 -0.707887 0.642197 -0.512062 -0.570417 
0.639295 -0.506088 -0.578944 0.644527 -0.506844 -0.572446 -0.582806 -0.456167 -0.672494 
-0.577536 -0.390127 -0.717114 0.602214 -0.475875 -0.641001 0.679173 -0.473181 -0.561092 
-0.588379 -0.519541 -0.619587 -0.577703 -0.422447 -0.698425 -0.615363 -0.446815 -0.649373 
0.63994 -0.569672 -0.515704 0.687133 -0.530035 -0.496901 0.690254 -0.588442 -0.421052 
-0.754986 -0.345436 -0.557378 -0.730091 -0.358344 -0.581856 -0.773576 -0.326039 -0.543396 
0.641586 -0.63271 -0.433641 0.676861 -0.64715 -0.350793 0.674477 -0.65441 -0.341803 
-0.791861 -0.325792 -0.516542 -0.846651 -0.237421 -0.476249 0.709114 -0.573174 -0.410645 
0.724306 -0.595765 -0.347053 0.740673 -0.56843 -0.358176 -0.873239 -0.171333 -0.456178 
0.79087 -0.456744 -0.407321 -0.899413 -0.022993 -0.436495 0.81803 -0.441526 -0.368622 
0.811191 -0.437835 -0.387646 0.852643 -0.419626 -0.311311 -0.928497 0.201353 -0.31201 
0.893906 -0.437294 -0.0985217 -0.854127 0.516151 -0.0636812 0.511725 0.524142 0.680744 
0.520607 0.522622 0.675156 0.509446 0.528279 0.679254 0.0250308 0.662579 0.748574 
0.0210841 0.61609 0.787393 -0.408526 0.534243 0.740061 -0.419152 0.516901 0.746408 
-0.446536 0.503835 0.73943 0.89755 -0.388645 -0.20823 0.898532 -0.342974 -0.273879 
0.903387 -0.364251 -0.226302 -0.779329 0.6266 -0.00438681 -0.623134 0.775017 0.105132 
0.48127 0.507521 0.714704 0.552315 0.551778 0.624892 -0.474259 0.484044 0.735377 
-0.553398 0.423288 0.717341 0.897371 0.0598415 -0.4372 0.945457 0.0529517 -0.321414 
-0.509924 0.843823 0.167154 -0.196009 0.903853 0.380303 -0.360891 0.863312 0.352776 
-0.0307145 0.8901 0.45473 -0.0719396 0.877644 0.473884 0.0224245 0.877176 0.479645 
0.00785665 0.875978 0.482288 0.167433 0.823126 0.542613 0.102902 0.850487 0.515832 
0.486972 0.624358 0.610766 0.305582 0.765291 0.566525 -0.549071 0.451754 0.703164 
-0.536158 0.56081 0.630894 -0.412803 0.566967 0.712841 0.714608 0.662341 -0.225034 
0.768773 0.580776 -0.267745 -0.349656 0.600234 0.719347 -0.319125 0.761388 0.564311 
-0.10524 0.697497 0.708818 -0.00973487 0.80755 0.589718 0.0262556 0.804646 0.593174 
0.341516 0.849759 0.401592 0.257926 0.947173 0.190625 -0.375627 -0.808435 -0.453142 
-0.379425 -0.82147 -0.425705 -0.394256 -0.815031 -0.424601 -0.101409 -0.807781 -0.580695 
-0.108776 -0.883749 -0.455142 -0.00647556 -0.81415 -0.580619 0 -0.889025 -0.457859 
-0.0147837 -0.827956 -0.560599 0 -0.893781 -0.448504 0.0749894 -0.842232 -0.533874 