# vtk DataFile Version 4.0
vtk output
ASCII
DATASET POLYDATA
POINTS 2692 float
14 36 5.83028 14 35.7001 6 13.5866 36 6 
15 36 5.70014 15 35.5 6 16 36 5.89748 
16 35.8008 6 16.1992 36 6 13 37 5.76808 
13 36.5 6 12.5 37 6 14 37 5.54296 
15 37 5.5 16 37 5.64708 16.7001 37 6 
12 38 5.83028 12 37.5866 6 11.7583 38 6 
13 38 5.54296 14 38 5.5 15 38 5.5 
16 38 5.54296 17 37.4134 6 17 38 5.76808 
17.5866 38 6 12 39 5.70014 11.5866 39 6 
13 39 5.5 14 39 5.5 15 39 5.5 
16 39 5.5 17 39 5.54296 18 38.2999 6 
18 39 5.64708 19 39 5.89748 19 38.8008 6 
19.1992 39 6 12 40 5.70014 11.5866 40 6 
13 40 5.5 14 40 5.5 15 40 5.5 
16 40 5.5 17 40 5.5 18 40 5.5 
19 40 5.64708 19.7001 40 6 12 41 5.85824 
11.8149 41 6 13 41 5.54296 14 41 5.5 
15 41 5.45704 16 41 5.40246 17 41 5.45704 
18 41 5.5 19 41 5.54296 20 40.5 6 
20 41 5.83028 20.2999 41 6 12 41.2847 6 
12.5886 42 6 13 42 5.76808 14 42 5.54296 
15 42 5.40246 16 42 5.26694 17 42 5.40246 
18 42 5.5 19 42 5.5 20 42 5.64708 
20.7001 42 6 13 42.4114 6 13.7153 43 6 
14 43 5.85824 15 43 5.60448 16 43 5.4453 
17 43 5.45704 18 43 5.5 19 43 5.5 
20 43 5.54296 21 42.5 6 21 43 5.83028 
21.2664 43 6 14 43.1851 6 15 43.6795 6 
15.3574 44 6 16 44 5.66641 17 44 5.5 
18 44 5.5 19 44 5.5 20 44 5.5 
21 44 5.70014 21.4761 44 6 16 44.7696 6 
16.2952 45 6 17 45 5.73648 18 45 5.59401 
19 45 5.51343 20 45 5.5 21 45 5.70014 
21.4761 45 6 17 45.301 6 18 45.6987 6 
18.6214 46 6 19 46 5.86579 20 46 5.80081 
20.8335 46 6 21 45.896 6 19 46.1294 6 
20 46.1992 6 12 33 6.83028 12 32.7165 7 
11.617 33 7 13 33 6.70014 13 32.5 7 
14 33 6.70014 14 32.5 7 15 33 6.70014 
15 32.5 7 16 33 6.70014 16 32.5 7 
17 33 6.70014 17 32.5 7 18 33 6.70014 
18 32.5 7 19 33 6.70014 19 32.5 7 
20 33 6.83028 20 32.7001 7 20.4134 33 7 
11 34 6.83028 11 33.617 7 10.7583 34 7 
12 34 6.54296 13 34 6.5 14 34 6.5 
15 34 6.5 16 34 6.5 17 34 6.5 
18 34 6.5 19 34 6.5 20 34 6.54296 
21 33.5 7 21 34 6.76808 21.5 34 7 
11 35 6.70014 10.5866 35 7 12 35 6.5 
13 35 6.45704 14 35 6.35292 15 35 6.29986 
16 35 6.35292 17 35 6.45704 18 35 6.5 
19 35 6.5 20 35 6.5 21 35 6.54296 
22 34.5866 7 22 35 6.83028 22.2999 35 7 
11 36 6.70014 10.5866 36 7 12 36 6.45704 
13 36 6.23192 17 36 6.35292 18 36 6.5 
19 36 6.5 20 36 6.5 21 36 6.5 
22 36 6.70014 22.5 36 7 11 37 6.65793 
10.5633 37 7 12 37 6.23192 17 37 6.16972 
18 37 6.45704 19 37 6.5 20 37 6.5 
21 37 6.5 22 37 6.70014 22.5 37 7 
11 38 6.55394 10.5183 38 7 18 38 6.16972 
19 38 6.35292 20 38 6.45704 21 38 6.5 
22 38 6.64708 22.7001 38 7 11 39 6.5 
10.5 39 7 20 39 6.35292 21 39 6.5 
22 39 6.54296 23 38.5 7 23 39 6.83028 
23.2999 39 7 11 40 6.5 10.5 40 7 
20 40 6.16972 21 40 6.45704 22 40 6.5 
23 40 6.70014 23.5 40 7 11 41 6.71481 
10.7148 41 7 21 41 6.35292 22 41 6.5 
23 41 6.70014 23.5 41 7 11 41.5 7 
12 42 6.3763 11.2966 42 7 21 42 6.16972 
22 42 6.5 23 42 6.83028 23.2999 42 7 
12 42.9911 7 13 43 6.42437 12.0109 43 7 
22 43 6.45006 22.9756 43 7 23 42.9222 7 
13 43.4832 7 14 44 6.90146 13.8834 44 7 
15 44 6.28805 22 44 6.34207 23 43.0778 7 
23 44 6.83028 23.2999 44 7 14 44.071 7 
15 44.5 7 16 45 6.44256 15.7848 45 7 
22 45 6.34207 23 45 6.85824 23.2152 45 7 
16 45.1418 7 17 45.5 7 18 45.7681 7 
18.5 46 7 21 46 6.06776 22 46 6.81489 
22.2342 46 7 23 45.2342 7 19 46.2319 7 
20 46.457 7 21 46.442 7 22 46.1467 7 
20 29 7.83028 20 28.7583 8 19.5 29 8 
21 29 7.72183 21 28.6454 8 22 29 7.92637 
22 28.92 8 22.1774 29 8 13 30 7.83028 
13 29.7583 8 12.617 30 8 14 30 7.70014 
14 29.5688 8 15 30 7.70014 15 29.5239 8 
16 30 7.70014 16 29.5 8 17 30 7.70014 
17 29.5 8 18 30 7.70014 18 29.5 8 
19 30 7.64708 19 29.2999 8 20 30 7.54296 
21 30 7.5 22 30 7.54296 23 29.4357 8 
23 30 7.64708 24 30 7.85824 24 29.8149 8 
24.2342 30 8 12 31 7.76808 12 30.5317 8 
11.5317 31 8 13 31 7.54296 14 31 7.5 
15 31 7.5 16 31 7.5 17 31 7.5 
18 31 7.5 19 31 7.5 20 31 7.5 
21 31 7.5 22 31 7.5 23 31 7.5 
24 31 7.54296 25 30.8717 8 25 31 7.92637 
25.08 31 8 11 32 7.72656 11 31.5 8 
10.5576 32 8 12 32 7.39552 13 32 7.29986 
14 32 7.29986 15 32 7.29986 16 32 7.29986 
17 32 7.29986 18 32 7.29986 19 32 7.29986 
20 32 7.35292 21 32 7.45704 22 32 7.5 
23 32 7.5 24 32 7.5 25 32 7.72183 
25.3546 32 8 10 33 7.81728 10 32.67 8 
9.78057 33 8 11 33 7.27344 21 33 7.23192 
22 33 7.45704 23 33 7.5 24 33 7.5 
25 33 7.70014 25.4134 33 8 10 34 7.55394 
9.5183 34 8 22 34 7.23192 23 34 7.45704 
24 34 7.5 25 34 7.70014 25.4134 34 8 
10 35 7.5 9.5 35 8 23 35 7.35292 
24 35 7.5 25 35 7.70014 25.4312 35 8 
10 36 7.5 9.5 36 8 23 36 7.29986 
24 36 7.5 25 36 7.70014 25.4761 36 8 
10 37 7.51829 9.55394 37 8 23 37 7.29986 
24 37 7.5 25 37 7.70014 25.5 37 8 
10 38 7.56331 9.65793 38 8 23 38 7.16972 
24 38 7.45704 25 38 7.70014 25.5 38 8 
10 39 7.58664 9.70014 39 8 24 39 7.35292 
25 39 7.64708 25.7001 39 8 10 40 7.58664 
9.70014 40 8 24 40 7.29986 25 40 7.54296 
26 39.4134 8 26 40 7.76808 26.4683 40 8 
10 41 7.81489 9.85824 41 8 24 41 7.29986 
25 41 7.5 26 41 7.54296 27 40.617 8 
27 41 7.83028 27.2417 41 8 10 41.2847 8 
11 42 7.29663 10.3763 42 8 24 42 7.35292 
25 42 7.5 26 42 7.5 27 42 7.64708 
27.5917 42 8 11 42.9911 8 12 43 7.00983 
11.0098 43 8 23 43 7.01563 24 43 7.41123 
25 43 7.5 26 43 7.5 27 43 7.58877 
27.9043 43 8 12 43.442 8 13 43.6471 8 
13.8008 44 8 24 44 7.38885 25 44 7.61208 
26 44 7.73648 27 44 7.96131 27.0694 44 8 
14 44.1025 8 15 44.3955 8 16 44.7266 8 
16 45 7.33402 16.617 45 8 24 45 7.78475 
24.3416 45 8 25 44.6112 8 26 44.301 8 
27 44.0387 8 17 45.1697 8 18 45.3955 8 
19 45.7266 8 19 46 7.46833 19.617 46 8 
22.6755 46 8 23 45.8529 8 24 45.1689 8 
20 46.1697 8 21 46.2999 8 22 46.2429 8 
15 28 8.96131 15 27.9613 9 14.9015 28 9 
16 28 8.80081 16 27.8008 9 17 28 8.80081 
17 27.8008 9 18 28 8.80081 18 27.8008 9 
19 28 8.75654 19 27.7742 9 20 28 8.64545 
20 27.7218 9 21 28 8.84383 21 27.8975 9 
21.1869 28 9 12 29 8.78959 12 28.7247 9 
11.5435 29 9 13 29 8.55394 13 28.5183 9 
14 29 8.44606 14 28.3649 9 15 29 8.34207 
16 29 8.29986 17 29 8.29986 18 29 8.29986 
19 29 8.16972 22 28.3955 9 23 29 8.43574 
23 28.6471 9 24 29 8.90146 24 28.929 9 
24.0985 29 9 11 30 8.72656 11 29.4683 9 
10.4683 30 9 12 30 8.27344 25 30 8.76575 
25 29.8149 9 25.1418 30 9 10 31 8.78959 
10 30.5435 9 9.71195 31 9 11 31 8.27344 
25.6045 31 9 10 32 8.3763 9.22908 32 9 
26 31.8131 9 26 32 8.84383 26.1025 32 9 
9 33 8.68827 9 32.383 9 8.66075 33 9 
26 33 8.58664 26.2999 33 9 9 34 8.5 
8.5 34 9 26 34 8.56331 26.3421 34 9 
9 35 8.5183 8.55394 35 9 26 35 8.4617 
26.57 35 9 9 36 8.56331 8.65793 36 9 
26 36 8.34207 27 35.9186 9 27 36 8.96131 
27.0387 36 9 9 37 8.75834 8.83028 37 9 
26 37 8.29986 27 37 8.7742 27.2435 37 9 
9 37.5 9 9.16972 38 9 26 38 8.29986 
27 38 8.72183 27.3546 38 9 9.35292 39 9 
26 39 8.16972 27 39 8.60448 27.5836 39 9 
9.45704 40 9 27 40 8.27344 28 39.7564 9 
28 40 8.88508 28.1149 40 9 9.54296 41 9 
28 41 8.57337 28.4266 41 9 10 42 8.71531 
9.85824 42 9 28 42 8.31173 28.6883 42 9 
10 42.1851 9 11 43 8.03623 10.8149 43 9 
28 43 8.06176 28.9382 43 9 11 43.1418 9 
12 43.4112 9 13 43.3955 9 14 43.5 9 
14 44 8.16467 15 43.7896 9 15 44 8.67948 
15.5 44 9 28 44 8.68277 28.3172 44 9 
16 44.2104 9 17 44.5 9 17 45 8.25342 
18 44.7455 9 18 45 8.64613 18.7044 45 9 
24 45 8.5 23.666 45 9 24 44.8582 9 
25 44.6471 9 26 44.543 9 27 44.457 9 
28 44.2071 9 19 45.1149 9 20 45.3791 9 
20 46 8.24166 21 45.4817 9 21 46 8.41336 
22 45.5 9 22 46 8.35501 23 45.3117 9 
9 28 9.8706 9 27.8658 10 8.6214 28 10 
10 28 9.80081 10 27.8008 10 11 28 9.75654 
11 27.7742 10 12 28 9.64545 12 27.7218 10 
13 28 9.58664 13 27.7001 10 14 28 9.43574 
14 27.6471 10 15 27.543 10 16 27.5 10 
17 27.5 10 18 27.5 10 19 27.5 10 
20 27.543 10 21 27.8303 10 21.343 28 10 
9 29 9.64707 8.29986 29 10 10 29 9.45704 
11 29 9.23192 22 28.2999 10 23 28.4025 10 
24 28.6579 10 24.4367 29 10 9 30 9.65793 
8.47615 30 10 10 30 9.23192 25 29.5866 10 
25.2999 30 10 9 31 9.5 8.25342 31 10 
25.6471 31 10 8 32 9.78959 8 31.4562 10 
7.72472 32 10 9 32 9.18272 26 31.7001 10 
26.1697 32 10 8 33 9.57337 7.57337 33 10 
26.457 33 10 8 34 9.56331 7.65793 34 10 
26.6471 34 10 8 35 9.75834 7.83028 35 10 
27 34.7001 10 27 35 9.68966 27.1697 35 10 
8 35.4134 10 8.23192 36 10 27.457 36 10 
8.5 37 10 27.6471 37 10 9 38 9.29986 
8.64708 38 10 28 37.7513 10 28 38 9.80241 
28.1421 38 10 9 39 9.80081 8.89748 39 10 
28 39 9.37967 28.5 39 10 9 39.1992 10 
9.35292 40 10 28.7896 40 10 9.54296 41 10 
29 40.5438 10 29 41 9.75834 29.1697 41 10 
9.92637 42 10 29 42 9.38936 29.3955 42 10 
10 42.08 10 11 42.7266 10 11 43 9.33402 
12 42.9788 10 12 43 9.96339 13 42.6883 10 
13 43 9.61064 14 42.6351 10 14 43 9.62033 
14.7564 43 10 29 43 9.10192 29.4422 43 10 
15 43.1149 10 16 43.4266 10 16 44 9.27528 
17 43.6351 10 17 44 9.62033 18 43.8734 10 
18 44 9.88498 19 43.7247 10 19 44 9.78959 
20 43.7466 10 20 44 9.83028 20.5 44 10 
28.6127 44 10 29 43.7361 10 19 45 9.11492 
20 45 9.32092 21 44.2417 10 21 45 9.44606 
22 44.4367 10 22 45 9.5 23 44.4266 10 
23 45 9.33925 24 44.3421 10 25 44.2999 10 
26 44.2999 10 27 44.2999 10 28 44.2429 10 
7 28 10.699 7 27.7365 11 6.35238 28 11 
8 28 10.3013 8 27.594 11 9 27.5134 11 
10 27.5 11 11 27.5 11 12 27.5 11 
13 27.5 11 14 27.5 11 15 27.5 11 
16 27.5 11 17 27.5 11 18 27.5 11 
19 27.543 11 20 27.7681 11 21 28 10.4134 
20.5 28 11 6 29 10.9613 6 28.8089 11 
5.96131 29 11 7 29 10.5 8 29 10.1697 
21 28.2319 11 22 28.3529 11 23 28.2669 11 
24 28.6241 11 24.4058 29 11 6 29.0814 11 
6.50909 30 11 7 30 10.6664 8 30 10.2999 
25 29.8438 11 25.1025 30 11 7 31 10.7304 
6.73037 31 11 8 31 10.1697 25.3955 31 11 
7 32 10.6454 6.72183 32 11 26 32 10.383 
25.7266 32 11 7 33 10.7583 6.83028 33 11 
26 32.5317 11 26.2319 33 11 7 33.4134 11 
7.23192 34 11 26.6045 34 11 7.5 35 11 
27 34.7165 11 27.1697 35 11 8 36 10.5866 
7.83028 36 11 27.457 36 11 8 36.2999 11 
8.35292 37 11 27.7001 37 11 8.54296 38 11 
28 37.4507 11 28.3963 38 11 8.83028 39 11 
28.9395 39 11 9 39.2835 11 9.39552 40 11 
29 39.1488 11 29 40 10.3836 29.2999 40 11 
9.79295 41 11 29.457 41 11 10 41.3172 11 
10 42 10.1283 10.7254 42 11 13 42 10.7148 
12.4637 42 11 13 41.7148 11 14 41.5183 11 
[...]
POINT_DATA 2692
SCALARS scalars unsigned_short
LOOKUP_TABLE default
1 1 1 1 1 1 1 1 1 
1 1 1 1 1 1 1 1 1 
1 1 1 1 1 1 1 1 1 
1 1 1 1 1 1 1 1 1 
1 1 1 1 1 1 1 1 1 
1 1 1 1 1 1 1 1 1 
1 1 1 1 1 1 1 1 1 
1 1 1 1 1 1 1 1 1 
1 1 1 1 1 1 1 1 1 
1 1 1 1 1 1 1 1 1 
1 1 1 1 1 1 1 1 1 
1 1 1 1 1 1 1 1 1 
1 1 1 1 1 1 1 1 1 
1 1 1 1 1 1 1 1 1 
1 1 1 1 1 1 1 1 1 
1 1 1 1 1 1 1 1 1 
1 1 1 1 1 1 1 1 1 
1 1 1 1 1 1 1 1 1 
1 1 1 1 1 1 1 1 1 
1 1 1 1 1 1 1 1 1 
1 1 1 1 1 1 1 1 1 
1 1 1 1 1 1 1 1 1 
1 1 1 1 1 1 1 1 1 
1 1 1 1 1 1 1 1 1 
1 1 1 1 1 1 1 1 1 
1 1 1 1 1 1 1 1 1 
1 1 1 1 1 1 1 1 1 
1 1 1 1 1 1 1 1 1 
1 1 1 1 1 1 1 1 1 
1 1 1 1 1 1 1 1 1 
1 1 1 1 1 1 1 1 1 
1 1 1 1 1 1 1 1 1 
1 1 1 1 1 1 1 1 1 
1 1 1 1 1 1 1 1 1 
1 1 1 1 1 1 1 1 1 
1 1 1 1 1 1 1 1 1 
1 1 1 1 1 1 1 1 1 
1 1 1 1 1 1 1 1 1 
1 1 1 1 1 1 1 1 1 
1 1 1 1 1 1 1 1 1 
1 1 1 1 1 1 1 1 1 
1 1 1 1 1 1 1 1 1 
1 1 1 1 1 1 1 1 1 
1 1 1 1 1 1 1 1 1 
1 1 1 1 1 1 1 1 1 
1 1 1 1 1 1 1 1 1 
1 1 1 1 1 1 1 1 1 
1 1 1 1 1 1 1 1 1 
1 1 1 1 1 1 1 1 1 
1 1 1 1 1 1 1 1 1 
1 1 1 1 1 1 1 1 1 
1 1 1 1 1 1 1 1 1 
1 1 1 1 1 1 1 1 1 
1 1 1 1 1 1 1 1 1 
1 1 1 1 1 1 1 1 1 
1 1 1 1 1 1 1 1 1 
1 1 1 1 1 1 1 1 1 
1 1 1 1 1 1 1 1 1 
1 1 1 1 1 1 1 1 1 
1 1 1 1 1 1 1 1 1 
1 1 1 1 1 1 1 1 1 
1 1 1 1 1 1 1 1 1 
1 1 1 1 1 1 1 1 1 
1 1 1 1 1 1 1 1 1 
1 1 1 1 1 1 1 1 1 
1 1 1 1 1 1 1 1 1 
1 1 1 1 1 1 1 1 1 
1 1 1 1 1 1 1 1 1 
1 1 1 1 1 1 1 1 1 
1 1 1 1 1 1 1 1 1 
1 1 1 1 1 1 1 1 1 
1 1 1 1 1 1 1 1 1 
1 1 1 1 1 1 1 1 1 
1 1 1 1 1 1 1 1 1 
1 1 1 1 1 1 1 1 1 
1 1 1 1 1 1 1 1 1 
1 1 1 1 1 1 1 1 1 
1 1 1 1 1 1 1 1 1 
1 1 1 1 1 1 1 1 1 
1 1 1 1 1 1 1 1 1 
1 1 1 1 1 1 1 1 1 
1 1 1 1 1 1 1 1 1 
1 1 1 1 1 1 1 1 1 
1 1 1 1 1 1 1 1 1 
1 1 1 1 1 1 1 1 1 
1 1 1 1 1 1 1 1 1 
1 1 1 1 1 1 1 1 1 
1 1 1 1 1 1 1 1 1 
1 1 1 1 1 1 1 1 1 
1 1 1 1 1 1 1 1 1 
1 1 1 1 1 1 1 1 1 
1 1 1 1 1 1 1 1 1 
1 1 1 1 1 1 1 1 1 
1 1 1 1 1 1 1 1 1 
1 1 1 1 1 1 1 1 1 
1 1 1 1 1 1 1 1 1 
1 1 1 1 1 1 1 1 1 
1 1 1 1 1 1 1 1 1 
1 1 1 1 1 1 1 1 1 
1 1 1 1 1 1 1 1 1 
1 1 1 1 1 1 1 1 1 
1 1 1 1 1 1 1 1 1 
1 1 1 1 1 1 1 1 1 
1 1 1 1 1 1 1 1 1 
1 1 1 1 1 1 1 1 1 
1 1 1 1 1 1 1 1 1 
1 1 1 1 1 1 1 1 1 
1 1 1 1 1 1 1 1 1 
1 1 1 1 1 1 1 1 1 
1 1 1 1 1 1 1 1 1 
1 1 1 1 1 1 1 1 1 
1 1 1 1 1 1 1 1 1 
1 1 1 1 1 1 1 1 1 
1 1 1 1 1 1 1 1 1 
1 1 1 1 1 1 1 1 1 
1 1 1 1 1 1 1 1 1 
1 1 1 1 1 1 1 1 1 
1 1 1 1 1 1 1 1 1 
1 1 1 1 1 1 1 1 1 
1 1 1 1 1 1 1 1 1 
1 1 1 1 1 1 1 1 1 
1 1 1 1 1 1 1 1 1 
1 1 1 1 1 1 1 1 1 
1 1 1 1 1 1 1 1 1 
1 1 1 1 1 1 1 1 1 
1 1 1 1 1 1 1 1 1 
1 1 1 1 1 1 1 1 1 
1 1 1 1 1 1 1 1 1 
1 1 1 1 1 1 1 1 1 
1 1 1 1 1 1 1 1 1 
1 1 1 1 1 1 1 1 1 
1 1 1 1 1 1 1 1 1 
1 1 1 1 1 1 1 1 1 
1 1 1 1 1 1 1 1 1 
1 1 1 1 1 1 1 1 1 
1 1 1 1 1 1 1 1 1 
1 1 1 1 1 1 1 1 1 
1 1 1 1 1 1 1 1 1 
1 1 1 1 1 1 1 1 1 
1 1 1 1 1 1 1 1 1 
1 1 1 1 1 1 1 1 1 
1 1 1 1 1 1 1 1 1 
1 1 1 1 1 1 1 1 1 
1 1 1 1 1 1 1 1 1 
1 1 1 1 1 1 1 1 1 
1 1 1 1 1 1 1 1 1 
1 1 1 1 1 1 1 1 1 
1 1 1 1 1 1 1 1 1 
1 1 1 1 1 1 1 1 1 
1 1 1 1 1 1 1 1 1 
1 1 1 1 1 1 1 1 1 
1 1 1 1 1 1 1 1 1 
1 1 1 1 1 1 1 1 1 
1 1 1 1 1 1 1 1 1 
1 1 1 1 1 1 1 1 1 
1 1 1 1 1 1 1 1 1 
1 1 1 1 1 1 1 1 2 
2 2 2 2 2 2 2 2 2 
2 2 2 2 2 2 2 2 2 
2 2 2 2 2 2 2 2 2 
2 2 2 2 2 2 2 2 2 
2 2 2 2 2 2 2 2 2 
2 2 2 2 2 2 2 2 2 
2 2 2 2 2 2 2 2 2 
2 2 2 2 2 2 2 2 2 
2 2 2 2 2 2 2 2 2 
2 2 2 2 2 2 2 2 2 
2 2 2 2 2 2 2 2 2 
2 2 2 2 2 2 2 2 2 
2 2 2 2 2 2 2 2 2 
2 2 2 2 2 2 2 2 2 
2 2 2 2 2 2 2 2 2 
2 2 2 2 2 2 2 2 2 
2 2 2 2 2 2 2 2 2 
2 2 2 2 2 2 2 2 2 
2 2 2 2 2 2 2 2 2 
2 2 2 2 2 2 2 2 2 
2 2 2 2 2 2 2 2 2 
2 2 2 2 2 2 2 2 2 
2 2 2 2 2 2 2 2 2 
2 2 2 2 2 2 2 2 2 
2 2 2 2 2 2 2 2 2 
2 2 2 2 2 2 2 2 2 
2 2 2 2 2 2 2 2 2 
2 2 2 2 2 2 2 2 2 
2 2 2 2 2 2 2 2 2 
2 2 2 2 2 2 2 2 2 
2 2 2 2 2 2 2 2 2 
2 2 2 2 2 2 2 2 2 
2 2 2 2 2 2 2 2 2 
2 2 2 2 2 2 2 2 2 
2 2 2 2 2 2 2 2 2 
2 2 2 2 2 2 2 2 2 
2 2 2 2 2 2 2 2 2 
2 2 2 2 2 2 2 2 2 
2 2 2 2 2 2 2 2 2 
2 2 2 2 2 2 2 2 2 
2 2 2 2 2 2 2 2 2 
2 2 2 2 2 2 2 2 2 
2 2 2 2 2 2 2 2 2 
2 2 2 2 2 2 2 2 2 
2 2 2 2 2 2 2 2 2 
2 2 2 2 2 2 2 2 2 
2 2 2 2 2 2 2 2 2 
2 2 2 2 2 2 2 2 2 
2 2 2 2 2 2 2 2 2 
2 2 2 2 2 2 2 2 2 
2 2 2 2 2 2 2 2 2 
2 2 2 2 2 2 2 2 2 
2 2 2 2 2 2 2 2 2 
2 2 2 2 2 2 2 2 2 
2 2 2 2 2 2 2 2 2 
2 2 2 2 2 2 2 2 2 
2 2 2 2 2 2 2 2 2 
2 2 2 2 2 2 2 2 2 
2 2 2 2 2 2 2 2 2 
2 2 2 2 2 2 2 2 2 
2 2 2 2 2 2 2 2 2 
2 2 2 2 2 2 2 2 2 
2 2 2 2 2 2 2 2 2 
2 2 2 2 2 2 2 2 2 
2 2 2 2 2 2 2 2 2 
2 2 2 2 2 2 2 2 2 
2 2 2 2 2 2 2 2 2 
2 2 2 2 2 2 2 2 2 
2 2 2 2 2 2 2 2 2 
2 2 2 2 2 2 2 2 2 
2 2 2 2 2 2 2 2 2 
2 2 2 2 2 2 2 2 2 
2 2 2 2 2 2 2 2 2 
2 2 2 2 2 2 2 2 2 
2 2 2 2 2 2 2 2 2 
2 2 2 2 2 2 2 2 2 
2 2 2 2 2 2 2 2 2 
2 2 2 2 2 2 2 2 2 
2 2 2 2 2 2 2 2 2 
2 2 2 2 2 2 2 2 2 
2 2 2 2 2 2 2 2 2 
2 2 2 2 2 2 2 2 2 
2 2 2 2 2 2 2 2 2 
2 2 2 2 2 2 2 2 2 
2 2 2 2 2 2 2 2 2 
2 2 2 2 2 2 2 2 2 
2 2 2 2 2 2 2 2 2 
2 2 2 2 2 2 2 2 2 
2 2 2 2 2 2 2 2 2 
2 2 2 2 2 2 2 2 2 
2 2 2 2 2 2 2 2 2 
2 2 2 2 2 2 2 2 2 
2 2 2 2 2 2 2 2 2 
2 2 2 2 2 2 2 2 2 
2 2 2 2 2 2 2 2 2 
2 2 2 2 2 2 2 2 2 
2 2 2 2 2 2 2 2 2 
2 2 2 2 2 2 2 2 2 
2 2 2 2 2 2 2 2 2 
2 2 2 2 2 2 2 2 2 
2 2 2 2 2 2 2 2 2 
2 2 2 2 2 2 2 2 2 
2 2 2 2 2 2 2 2 2 
2 2 2 2 2 2 2 2 2 
2 2 2 2 2 2 2 2 2 
2 2 2 2 2 2 2 2 2 
2 2 2 2 2 2 2 2 2 
2 2 2 2 2 2 2 2 2 
2 2 2 2 2 2 2 2 2 
2 2 2 2 2 2 2 2 2 
2 2 2 2 2 2 2 2 2 
2 2 2 2 2 2 2 2 2 
2 2 2 2 2 2 2 2 2 
2 2 2 2 2 2 2 2 2 
2 2 2 2 2 2 2 2 2 
2 2 2 2 2 2 2 2 2 
2 2 2 2 2 2 2 2 2 
2 2 2 2 2 2 2 2 2 
2 2 2 2 2 2 2 2 2 
2 2 2 2 2 2 2 2 2 
2 2 2 2 2 2 2 2 2 
2 2 2 2 2 2 2 2 2 
2 2 2 2 2 2 2 2 2 
2 2 2 2 2 2 2 2 2 
2 2 2 2 2 2 2 2 2 
2 2 2 2 2 2 2 2 2 
2 2 2 2 2 2 2 2 2 
2 2 2 2 2 2 2 2 2 
2 2 2 2 2 2 2 2 2 
2 2 2 2 2 2 2 2 2 
2 2 2 2 2 2 2 2 2 
2 2 2 2 2 2 2 2 2 
2 2 2 2 2 2 2 2 2 
2 2 2 2 2 2 2 2 2 
2 2 2 2 2 2 2 2 2 
2 2 2 2 2 2 2 2 2 
2 2 2 2 2 2 2 2 2 
2 2 2 2 2 2 2 2 2 
2 2 2 2 2 2 2 2 2 
2 2 2 2 2 2 2 2 2 
2 2 2 2 2 2 2 2 2 
2 2 2 2 2 2 2 2 2 
2 
NORMALS normals float
-0.25602 -0.428796 -0.866364 -0.223197 -0.433381 -0.873135 -0.297893 -0.417709 -0.858358 
0.0313368 -0.41751 -0.908132 0.0173637 -0.462686 -0.886352 0.335253 -0.368318 -0.867149 
0.300652 -0.375737 -0.876601 0.346949 -0.341834 -0.87337 -0.348896 -0.348896 -0.869795 
-0.356886 -0.373658 -0.856161 -0.4008 -0.352499 -0.845638 -0.156293 -0.185406 -0.970153 
0.0618198 -0.118426 -0.991037 0.339736 -0.194232 -0.920246 0.427338 -0.275911 -0.860962 
-0.473137 -0.249669 -0.844871 -0.468739 -0.289617 -0.83451 -0.525747 -0.227456 -0.819667 
-0.185406 -0.156293 -0.970153 -0.0285359 -0.0285359 -0.999185 0.0285475 0 -0.999592 
0.158347 -0.0939218 -0.982906 0.403662 -0.317508 -0.858048 0.324418 -0.324418 -0.888541 
0.317508 -0.403662 -0.858048 -0.456835 -0.0668558 -0.887036 -0.579657 -0.0578922 -0.812801 
-0.118605 -0.028346 -0.992537 0 0 -1 0 0 -1 
0.0285359 -0.0285359 -0.999185 0.0939218 -0.158347 -0.982906 0.275911 -0.427338 -0.860962 
0.194232 -0.339736 -0.920246 0.364107 -0.364107 -0.857235 0.338505 -0.370707 -0.864865 
0.370707 -0.338505 -0.864865 -0.456446 0.0785053 -0.886281 -0.57872 0.0810565 -0.811488 
-0.118605 0.028346 -0.992537 0 0 -1 0 -0.0285475 -0.999592 
0 -0.0622579 -0.99806 0 -0.0570253 -0.998373 0.0901952 -0.0901952 -0.991831 
0.339736 -0.194232 -0.920246 0.430029 -0.253882 -0.866383 -0.506351 0.294016 -0.810656 
-0.548169 0.29535 -0.782483 -0.194672 0.156008 -0.968382 -0.0570021 0.0285011 -0.997967 
-0.0652662 -0.0652662 -0.995731 0 -0.149641 -0.98874 0.0652662 -0.0652662 -0.995731 
0.0570253 0 -0.998373 0.186892 -0.0934459 -0.977926 0.446043 -0.266318 -0.854471 
0.428796 -0.25602 -0.866364 0.431122 -0.244323 -0.868585 -0.528487 0.340075 -0.77785 
-0.457696 0.415157 -0.786231 -0.377983 0.377983 -0.845137 -0.213205 0.192553 -0.957845 
-0.17534 0.0856698 -0.980774 0 0.0248406 -0.999691 0.149641 0 -0.98874 
0.0622579 0 -0.99806 0.0905277 -0.0284303 -0.995488 0.341606 -0.164634 -0.925311 
0.439941 -0.243167 -0.864478 -0.421582 0.464778 -0.77862 -0.376425 0.531895 -0.758546 
-0.342147 0.503788 -0.793179 -0.225083 0.389381 -0.893152 -0.0896138 0.243471 -0.965759 
0.0372895 0.0653602 -0.997165 0.0285475 0 -0.999592 0.0285475 0 -0.999592 
0.186892 -0.0934459 -0.977926 0.46725 -0.247883 -0.848665 0.455803 -0.222653 -0.861783 
0.493967 -0.201778 -0.845744 -0.357844 0.548694 -0.755568 -0.39433 0.530847 -0.750137 
-0.447141 0.499993 -0.741668 -0.357549 0.329714 -0.873755 -0.0990792 0.155724 -0.982819 
0 0.0570253 -0.998373 0 0.00896865 -0.99996 0.118605 -0.028346 -0.992537 
0.426559 -0.0679762 -0.901902 0.511502 -0.064265 -0.856876 -0.520514 0.594302 -0.613083 
-0.473462 0.657936 -0.585623 -0.266919 0.573706 -0.774348 -0.144502 0.34498 -0.92742 
-0.0605616 0.186715 -0.980546 0.109492 0.155553 -0.981741 0.422861 0.147652 -0.894084 
0.507036 0.146433 -0.849395 -0.338522 0.729589 -0.594225 -0.377693 0.758082 -0.531657 
-0.300609 0.813811 -0.497339 -0.20424 0.753178 -0.625307 0.0811171 0.666961 -0.740664 
0.353441 0.614335 -0.705458 0.414022 0.547033 -0.727558 -0.211196 0.816299 -0.537635 
0.0738257 0.772126 -0.631167 -0.266994 -0.438167 -0.858326 -0.256574 -0.461835 -0.849046 
-0.337166 -0.440961 -0.831789 -0.0683194 -0.416739 -0.906455 -0.0628907 -0.468041 -0.881466 
0 -0.417715 -0.908578 0 -0.462756 -0.886486 0 -0.417715 -0.908578 
0 -0.462756 -0.886486 0 -0.417715 -0.908578 0 -0.462756 -0.886486 
0 -0.417715 -0.908578 0 -0.462756 -0.886486 0 -0.417715 -0.908578 
0 -0.462756 -0.886486 0.0683194 -0.416739 -0.906455 0.0552136 -0.46205 -0.885134 
0.25602 -0.428796 -0.866364 0.223197 -0.433381 -0.873135 0.297893 -0.417709 -0.858358 
-0.471552 -0.261928 -0.842041 -0.469818 -0.326701 -0.820084 -0.523308 -0.246001 -0.815863 
-0.184491 -0.184491 -0.965363 -0.0282399 -0.146401 -0.988822 0 -0.205925 -0.978568 
0 -0.232448 -0.972609 0 -0.205925 -0.978568 0 -0.14646 -0.989217 
0 -0.118653 -0.992936 0.028346 -0.118605 -0.992537 0.156293 -0.185406 -0.970153 
0.356886 -0.373658 -0.856161 0.348896 -0.348896 -0.869795 0.373658 -0.356886 -0.856161 
-0.456835 -0.0668558 -0.887036 -0.579657 -0.0578922 -0.812801 -0.146227 -0.0564123 -0.987641 
-0.0939218 -0.158347 -0.982906 -0.0985199 -0.344647 -0.933548 0 -0.417715 -0.908578 
0.0995389 -0.316952 -0.943204 0.0946945 -0.0946945 -0.990992 0.0285475 0 -0.999592 
0 0 -1 0.0285359 -0.0285359 -0.999185 0.185406 -0.156293 -0.970153 
0.417709 -0.297893 -0.858358 0.428796 -0.25602 -0.866364 0.433381 -0.223197 -0.873135 
-0.475422 -0.0224832 -0.879471 -0.58665 -0.00914104 -0.809789 -0.26546 -0.153344 -0.951849 
-0.320941 -0.352595 -0.879018 0.314098 -0.166306 -0.934711 0.0905277 -0.0284303 -0.995488 
0 0 -1 0 0 -1 0.118605 -0.028346 -0.992537 
0.416739 -0.0683194 -0.906455 0.46205 -0.0552136 -0.885134 -0.551852 -0.0726189 -0.830774 
-0.630713 -0.0277714 -0.775519 -0.426302 -0.310243 -0.849715 0.42509 -0.285713 -0.858875 
0.184491 -0.184491 -0.965363 0.0284303 -0.0905277 -0.995488 0 -0.0285475 -0.999592 
0.118653 0 -0.992936 0.41751 -0.0313368 -0.908132 0.46205 -0.0552136 -0.885134 
-0.652655 -0.0767056 -0.753763 -0.69742 -0.0255806 -0.716206 0.285713 -0.42509 -0.858875 
0.166306 -0.314098 -0.934711 0.0946945 -0.0946945 -0.990992 0.118653 0 -0.992936 
0.344647 -0.0985199 -0.933548 0.43559 -0.200261 -0.877586 -0.69048 -0.0246946 -0.72293 
-0.723129 -0.0077575 -0.69067 0.314098 -0.166306 -0.934711 0.118605 -0.028346 -0.992537 
0.186892 -0.0934459 -0.977926 0.449818 -0.23481 -0.861701 0.432146 -0.225585 -0.873133 
0.447649 -0.19894 -0.871799 -0.688126 0.0860936 -0.720465 -0.720465 0.0860936 -0.688126 
0.428796 -0.25602 -0.866364 0.186892 -0.0934459 -0.977926 0.146401 -0.0282399 -0.988822 
0.416739 -0.0683194 -0.906455 0.468259 -0.0550105 -0.881877 -0.668881 0.294214 -0.682669 
-0.682669 0.294214 -0.668881 0.341606 -0.164634 -0.925311 0.205925 0 -0.978568 
0.416739 0.0683194 -0.906455 0.46205 0.0552136 -0.885134 -0.662781 0.348487 -0.662781 
-0.555294 0.43022 -0.71173 -0.636549 0.399293 -0.659827 0.444503 -0.25386 -0.859053 
0.353924 -0.0277875 -0.934861 0.453968 0.155487 -0.877346 0.449205 0.138166 -0.882681 
-0.499528 0.631519 -0.593005 -0.44144 0.634388 -0.634573 -0.497953 0.634198 -0.591469 
0.538441 -0.0881372 -0.838041 0.501849 -0.0012115 -0.864954 0.499136 0.0125957 -0.866432 
-0.45715 0.788066 -0.412269 -0.464758 0.810156 -0.357279 -0.470545 0.820626 -0.324286 
-0.463717 0.647792 -0.604428 0.536952 -0.0566195 -0.841711 0.502574 -0.00561561 -0.864516 
0.512207 -0.0700253 -0.856003 0.49541 -0.0493185 -0.867258 -0.467385 0.823393 -0.321832 
-0.492952 0.8477 -0.195968 -0.563969 0.783531 -0.260803 -0.528015 0.847586 0.0529018 
0.54392 0.177276 -0.820198 0.572767 0.284049 -0.76893 0.583617 0.305271 -0.752463 
-0.50918 0.856653 0.0829519 -0.335991 0.938008 0.0851586 -0.384282 0.90385 0.188102 
-0.397809 0.893144 0.20986 0.396812 0.617328 -0.679298 0.512955 0.704997 -0.489752 
0.512572 0.731253 -0.450043 0.59194 0.380911 -0.710292 -0.365771 0.911864 0.18632 
-0.120261 0.992455 0.0238686 0.167834 0.976742 -0.133444 0.469863 0.782214 -0.409108 
-0.207253 -0.478002 -0.853558 -0.186519 -0.537598 -0.822313 -0.220686 -0.500004 -0.837433 
0.0392592 -0.500618 -0.864777 0.0751228 -0.630329 -0.772685 0.284264 -0.620236 -0.731096 
0.291268 -0.647151 -0.704527 0.295501 -0.639858 -0.709409 -0.261928 -0.471552 -0.842041 
-0.249456 -0.522831 -0.81512 -0.324775 -0.479468 -0.81525 -0.0672119 -0.447489 -0.89176 
-0.078692 -0.558921 -0.825478 0 -0.427548 -0.903993 -0.0237897 -0.512416 -0.858408 
0 -0.417715 -0.908578 -0.00782681 -0.488283 -0.872651 0 -0.417715 -0.908578 
0 -0.488297 -0.872677 -0.0313368 -0.41751 -0.908132 -0.0543561 -0.487576 -0.871387 
-0.0985199 -0.344647 -0.933548 -0.196155 -0.47183 -0.859593 -0.0934459 -0.186892 -0.977926 
0 -0.127419 -0.991849 0.0928675 -0.216425 -0.971872 0.273075 -0.579138 -0.768133 
0.172607 -0.381408 -0.908149 0.363406 -0.49949 -0.786413 0.37598 -0.54449 -0.749779 
0.427612 -0.523011 -0.737298 -0.349394 -0.413739 -0.840681 -0.390182 -0.437327 -0.810249 
-0.408657 -0.433503 -0.803165 -0.152133 -0.291703 -0.944333 -0.0277661 -0.232358 -0.972234 
0 -0.232448 -0.972609 0 -0.232448 -0.972609 0 -0.232448 -0.972609 
0 -0.232448 -0.972609 0 -0.205925 -0.978568 0 -0.118653 -0.992936 
0 -0.0285475 -0.999592 0 -0.0285475 -0.999592 0.0284303 -0.0905277 -0.995488 
0.213297 -0.192549 -0.957825 0.618829 -0.37191 -0.691905 0.607479 -0.343843 -0.716059 
0.633673 -0.350084 -0.689855 -0.422804 -0.443043 -0.790538 -0.445242 -0.445242 -0.776865 
-0.488308 -0.436622 -0.75559 -0.223143 -0.45135 -0.863997 -0.0539644 -0.435974 -0.89834 
0 -0.417715 -0.908578 0 -0.417715 -0.908578 0 -0.417715 -0.908578 
0 -0.417715 -0.908578 0 -0.417715 -0.908578 0.0313368 -0.41751 -0.908132 
0.0985199 -0.344647 -0.933548 0.0939218 -0.158347 -0.982906 0.0285359 -0.0285359 -0.999185 
0 0 -1 0.127368 -0.028315 -0.991451 0.498079 -0.107907 -0.860391 
0.626049 -0.13821 -0.767438 -0.573744 -0.334539 -0.747597 -0.571867 -0.36751 -0.73342 
-0.600043 -0.320934 -0.732769 -0.434207 -0.409048 -0.802586 0.320941 -0.352595 -0.879018 
0.157076 -0.157076 -0.975015 0.0285359 -0.0285359 -0.999185 0.118653 0 -0.992936 
0.457828 -0.0117418 -0.888963 0.593483 -0.0238512 -0.804493 -0.648003 -0.141437 -0.74839 
-0.682272 -0.102286 -0.723908 0.352595 -0.320941 -0.879018 0.158347 -0.0939218 -0.982906 
0.14646 0 -0.989217 0.457859 0 -0.889025 0.590488 -0.00658564 -0.807019 
-0.69048 -0.0246946 -0.72293 -0.710889 -0.0076262 -0.703263 0.344647 -0.0985199 -0.933548 
0.205925 0 -0.978568 0.448504 0 -0.893781 0.563684 -0.0216708 -0.825706 
-0.69067 0.0077575 -0.723129 -0.719068 0.0245627 -0.694505 0.41751 -0.0313368 -0.908132 
0.232448 0 -0.972609 0.427548 0 -0.903993 0.512416 -0.0237897 -0.858408 
-0.716206 0.0255806 -0.69742 -0.753763 0.0767056 -0.652655 0.416739 -0.0683194 -0.906455 
0.232358 -0.0277661 -0.972234 0.417715 0 -0.908578 0.488283 -0.00782681 -0.872651 
-0.771259 0.0276188 -0.635922 -0.820304 0.0717037 -0.567415 0.432146 -0.225585 -0.873133 
0.293916 -0.0909205 -0.951497 0.4364 -0.0310292 -0.899218 0.493499 -0.0541486 -0.868059 
-0.800312 0.00903406 -0.599516 -0.858641 0.0219507 -0.512107 0.411421 -0.0956561 -0.906412 
0.411421 -0.0956561 -0.906412 0.472572 -0.218264 -0.853837 -0.807186 0.0806269 -0.584764 
-0.877034 0.0776862 -0.474105 0.4364 -0.0310292 -0.899218 0.267507 -0.0916553 -0.959187 
0.446067 -0.293441 -0.845528 0.363669 -0.319485 -0.875028 0.423207 -0.359262 -0.831761 
-0.782483 0.29535 -0.548169 -0.810656 0.294016 -0.506351 0.41751 0.0313368 -0.908132 
0.146401 -0.0282399 -0.988822 0.185406 -0.156293 -0.970153 0.478276 -0.33154 -0.813224 
0.46751 -0.290695 -0.834824 0.518396 -0.289748 -0.804557 -0.78339 0.342497 -0.518648 
-0.665639 0.40281 -0.628227 -0.730693 0.441682 -0.520582 0.345536 0.067754 -0.935956 
0.0905643 0 -0.995891 0.0905277 -0.0284303 -0.995488 0.374294 -0.132871 -0.917742 
0.5504 -0.198621 -0.810931 -0.634391 0.675594 -0.37566 -0.497943 0.635884 -0.589664 
-0.631541 0.679782 -0.372897 0.499665 0.000244139 -0.866219 0.259741 0.0234311 -0.965394 
0.0569016 0.0658366 -0.996207 0.056562 0.127215 -0.990261 0.276603 0.138676 -0.950926 
0.568534 0.0934232 -0.817338 -0.322353 0.929472 -0.17936 -0.345746 0.936305 0.0615787 
-0.396184 0.887175 0.236556 0.420306 0.133208 -0.897551 0.214258 0.381422 -0.899228 
0.18694 0.570402 -0.799809 0.346106 0.637848 -0.688012 0.360659 0.638308 -0.680064 
-0.392324 0.880686 0.265469 -0.323417 0.888522 0.32547 -0.37421 0.826224 0.421095 
-0.48642 0.85067 0.199389 -0.342534 0.817654 0.462723 0.611396 0.711818 -0.345703 
0.542606 0.806344 -0.235348 0.382401 0.765951 -0.516807 0.251868 0.733298 -0.631534 
0.348238 0.653353 -0.672206 -0.306919 0.827929 0.469398 -0.278842 0.842956 0.460079 
-0.363517 0.802614 0.472934 -0.390116 0.860898 0.326596 -0.313599 0.818494 0.481376 
0.408931 0.898717 0.158375 0.508642 0.858742 0.0620074 0.582399 0.791599 -0.184887 
-0.261928 0.842041 0.471552 -0.0369951 0.905344 0.423065 0.206867 0.937374 0.280242 
-0.232508 -0.714051 -0.660357 -0.23321 -0.725425 -0.64759 -0.23432 -0.718933 -0.654392 
-0.0712721 -0.700051 -0.710527 -0.072398 -0.778757 -0.623134 0 -0.701836 -0.712338 
0 -0.780806 -0.624774 -0.0207471 -0.701685 -0.712185 -0.0136585 -0.780733 -0.624716 
-0.0686071 -0.728239 -0.68188 -0.0420498 -0.811589 -0.582714 0.012319 -0.795267 -0.606134 
0.0618366 -0.880186 -0.470583 0.31933 -0.866686 -0.383254 0.340606 -0.880994 -0.328386 
0.360451 -0.877143 -0.317325 -0.296539 -0.547911 -0.782213 -0.255623 -0.587634 -0.767687 
-0.319209 -0.506293 -0.801108 -0.158276 -0.646332 -0.746461 -0.132951 -0.695165 -0.706448 
-0.103044 -0.647013 -0.755484 -0.19595 -0.700516 -0.686208 -0.0725646 -0.552793 -0.830153 
-0.0220088 -0.50827 -0.860916 0 -0.508394 -0.861125 -0.0647666 -0.507326 -0.859317 
-0.216084 -0.503795 -0.83636 0.376943 -0.8825 -0.281261 0.304375 -0.75339 -0.582889 
0.267672 -0.869271 -0.415596 0.442104 -0.776266 -0.449394 0.441038 -0.790077 -0.42575 
0.466544 -0.77829 -0.42024 -0.432246 -0.432246 -0.791408 -0.388283 -0.438434 -0.810562 
-0.438434 -0.388283 -0.810562 -0.404556 -0.45416 -0.793772 0.730383 -0.554781 -0.398444 
0.74397 -0.57935 -0.332961 0.771503 -0.546385 -0.325955 -0.526855 -0.361772 -0.76912 
-0.494506 -0.351366 -0.794988 -0.549272 -0.328721 -0.768272 -0.446581 -0.437432 -0.780525 
0.858309 -0.450838 -0.245052 -0.561705 -0.400642 -0.72386 -0.587367 -0.343736 -0.732698 
0.871701 -0.380397 -0.308926 0.861283 -0.336355 -0.380864 0.876548 -0.353429 -0.326729 
-0.6498 -0.269392 -0.710766 -0.608765 -0.3183 -0.726698 -0.651655 -0.239843 -0.719598 
0.811233 -0.0899323 -0.577765 0.894703 -0.12118 -0.42991 -0.701581 -0.0695302 -0.709189 
-0.718798 -0.0367873 -0.694245 0.775414 -0.0551047 -0.629044 0.849137 -0.125138 -0.513135 
-0.727495 0.025149 -0.685652 -0.753763 0.0767056 -0.652655 0.672389 -0.102418 -0.733078 
0.73127 -0.272974 -0.625083 -0.775774 0.0834475 -0.625468 -0.82537 0.134809 -0.548262 
0.552562 -0.0780801 -0.829806 0.712975 -0.285782 -0.640309 0.705447 -0.276984 -0.6524 
0.71625 -0.27956 -0.6394 -0.817106 0.21304 -0.535679 -0.839715 0.235841 -0.48914 
0.504645 -0.0220632 -0.863045 0.654388 -0.110298 -0.748071 0.737005 -0.138272 -0.661592 
-0.828198 0.249333 -0.501918 -0.834981 0.246746 -0.491858 0.495695 -0.0652734 -0.86604 