# vtk DataFile Version 4.0
vtk output
ASCII
DATASET POLYDATA
POINTS 2704 float
15 36 5.89748 15 35.8008 6 14.8008 36 6 
16 36 5.83028 16 35.7001 6 16.5 36 6 
15 37 5.64708 14.1992 37 6 16 37 5.54296 
17 36.343 6 17 37 5.70014 17.8512 37 6 
12 38 5.92895 12 37.8834 6 11.9015 38 6 
13 38 5.70014 13 37.5 6 14 38 5.64708 
14 37.1992 6 15 38 5.54296 16 38 5.5 
17 38 5.59754 18 37.5 6 18 38 5.93946 
18.1488 38 6 12 39 5.70014 11.5866 39 6 
13 39 5.5 14 39 5.5 15 39 5.5 
16 39 5.5 17 39 5.54296 18 39 5.64708 
19 38.7674 6 19 39 5.89748 19.1992 39 6 
12 40 5.72183 11.6454 40 6 13 40 5.5 
14 40 5.5 15 40 5.5 16 40 5.5 
17 40 5.5 18 40 5.5 19 40 5.70014 
19.5 40 6 12 41 5.7742 11.7565 41 6 
13 41 5.5 14 41 5.5 15 41 5.5 
16 41 5.5 17 41 5.5 18 41 5.5 
19 41 5.70014 19.5 41 6 12 41.8544 6 
12.0869 42 6 13 42 5.64708 14 42 5.54296 
15 42 5.5 16 42 5.5 17 42 5.5 
18 42 5.5 19 42 5.64708 19.8008 42 6 
13 42.5643 6 13.9015 43 6 14 43 5.96131 
15 43 5.71293 16 43 5.55802 17 43 5.5 
18 43 5.5 19 43 5.54296 20 42.1992 6 
20 43 5.64708 21 43 5.89748 21 42.8008 6 
21.1992 43 6 14 43.0387 6 15 43.3691 6 
15.7848 44 6 16 44 5.8533 17 44 5.54296 
18 44 5.5 19 44 5.5 20 44 5.5 
21 44 5.70014 21.5 44 6 16 44.2219 6 
16.7781 45 6 17 45 5.8533 18 45 5.55802 
19 45 5.5 20 45 5.5 21 45 5.70014 
21.4761 45 6 17 45.1851 6 18 45.9322 6 
18.1665 46 6 19 46 5.80081 20 46 5.80081 
20.8335 46 6 21 45.896 6 19 46.1992 6 
20 46.1992 6 12 33 6.83028 12 32.7001 7 
11.617 33 7 13 33 6.70014 13 32.5 7 
14 33 6.70014 14 32.5 7 15 33 6.70014 
15 32.5 7 16 33 6.70014 16 32.5 7 
17 33 6.70014 17 32.5 7 18 33 6.70014 
18 32.5 7 19 33 6.70014 19 32.5 7 
20 33 6.70014 20 32.5 7 21 33 6.89748 
21 32.8008 7 21.1992 33 7 11 34 6.98437 
11 33.9503 7 10.9768 34 7 12 34 6.58877 
13 34 6.5 14 34 6.5 15 34 6.5 
16 34 6.5 17 34 6.5 18 34 6.5 
19 34 6.5 20 34 6.5 21 34 6.70014 
21.5 34 7 11 34.0661 7 11.338 35 7 
12 35 6.64708 13 35 6.5 14 35 6.45704 
15 35 6.35292 16 35 6.35292 17 35 6.45704 
18 35 6.5 19 35 6.5 20 35 6.5 
21 35 6.64708 21.8008 35 7 12 36 6.70014 
11.5688 36 7 13 36 6.5 14 36 6.35292 
17 36 6.16972 18 36 6.35292 19 36 6.45704 
20 36 6.5 21 36 6.54296 22 35.2326 7 
22 36 6.70014 23 36 6.89748 23 35.7674 7 
23.4351 36 7 12 37 6.5 11.3535 37 7 
13 37 6.29986 14 37 6.10252 18 37 6.06054 
19 37 6.40246 20 37 6.5 21 37 6.54296 
22 37 6.76808 22.5866 37 7 23 36.3674 7 
11 38 6.81489 11 37.666 7 10.8582 38 7 
19 38 6.29986 20 38 6.45704 21 38 6.59754 
21.9703 38 7 22 37.9439 7 11 39 6.56331 
10.6579 39 7 20 39 6.35292 21 39 6.54296 
22 38.0561 7 22 39 6.76808 22.5 39 7 
11 40 6.68858 10.737 40 7 20 40 6.29986 
21 40 6.5 22 40 6.54296 23 39.5866 7 
23 40 6.83028 23.2999 40 7 11 40.6372 7 
11.1418 41 7 20 41 6.29986 21 41 6.5 
22 41 6.5 23 41 6.70014 23.5 41 7 
12 42 6.05443 11.3531 42 7 20 42 6.10252 
21 42 6.35292 22 42 6.45704 23 42 6.70014 
23.5 42 7 12 43 6.90603 11.9015 43 7 
13 43 6.43574 22 43 6.35292 23 43 6.70014 
23.5 43 7 12 43.0736 7 13 43.3529 7 
14 43.457 7 15 43.7493 7 15.303 44 7 
22 44 6.29986 23 44 6.70014 23.5 44 7 
16 44.7516 7 16.3105 45 7 22 45 6.34207 
23 45 6.85824 23.2152 45 7 17 45.4461 7 
18 46 6.36376 17.8897 46 7 21 46 6.07769 
22 46 6.81489 22.2342 46 7 23 45.2342 7 
18 46.071 7 19 46.2999 7 20 46.3529 7 
21 46.3943 7 22 46.1467 7 20 29 7.85824 
20 28.8149 8 19.5531 29 8 21 29 7.7742 
21 28.7565 8 22 29 7.80081 22 28.8008 8 
23 29 7.96131 23 28.9613 8 23.0814 29 8 
13 30 7.83028 13 29.7583 8 12.5438 30 8 
14 30 7.70014 14 29.5866 8 15 30 7.70014 
15 29.5688 8 16 30 7.70014 16 29.5239 8 
17 30 7.70014 17 29.5 8 18 30 7.70014 
18 29.5 8 19 30 7.64708 19 29.2999 8 
20 30 7.54296 21 30 7.5 22 30 7.5 
23 30 7.54296 24 29.5091 8 24 30 7.66641 
24.986 30 8 11 31 7.92895 11 30.8964 8 
10.9015 31 8 12 31 7.64708 12 30.338 8 
13 31 7.54296 14 31 7.5 15 31 7.5 
16 31 7.5 17 31 7.5 18 31 7.5 
19 31 7.5 20 31 7.5 21 31 7.5 
22 31 7.5 23 31 7.5 24 31 7.5 
25 30.0098 8 25 31 7.55802 25.9322 31 8 
11 32 7.60448 10.3894 32 8 12 32 7.35292 
13 32 7.29986 14 32 7.29986 15 32 7.29986 
16 32 7.29986 17 32 7.29986 18 32 7.29986 
19 32 7.29986 20 32 7.29986 21 32 7.35292 
22 32 7.45704 23 32 7.5 24 32 7.5 
25 32 7.5 26 31.1665 8 26 32 7.80081 
26.1992 32 8 10 33 7.81728 10 32.617 8 
9.78057 33 8 11 33 7.27344 22 33 7.35292 
23 33 7.5 24 33 7.5 25 33 7.5 
26 33 7.80081 26.1992 33 8 10 34 7.60372 
9.53798 34 8 22 34 7.29986 23 34 7.5 
24 34 7.5 25 34 7.5 26 34 7.80081 
26.1992 34 8 10 35 7.81728 9.78057 35 8 
11 35 7.21041 22 35 7.10252 23 35 7.29986 
24 35 7.35292 25 35 7.5 26 35 7.92637 
26.08 35 8 10 35.383 8 10.3393 36 8 
11 36 7.44606 24 36 7.13095 25 36 7.5 
25.9199 36 8 26 35.5846 8 11 37 7.33925 
10.4461 37 8 23 37 7.16972 24 37 7.35292 
25 37 7.5 26 36.2165 8 26 37 7.83028 
26.2417 37 8 10.3421 38 8 22 38 7.01563 
23 38 7.41123 24 38 7.5 25 38 7.5 
26 38 7.70014 26.4134 38 8 10.1697 39 8 
23 39 7.23192 24 39 7.45704 25 39 7.5 
26 39 7.64708 26.5917 39 8 10.0212 40 8 
24 40 7.35292 25 40 7.5 26 40 7.58877 
26.9634 40 8 11 41 7.18511 10.3117 41 8 
24 41 7.29986 25 41 7.5 26 41 7.59754 
26.9703 41 8 11 42 7.45477 10.5539 42 8 
24 42 7.29986 25 42 7.5 26 42 7.54296 
27 41.0561 8 27 42 7.76808 27.4114 42 8 
11 42.9881 8 11.0098 43 8 24 43 7.29986 
25 43 7.5 26 43 7.5 27 43 7.58877 
27.9634 43 8 12 43.442 8 13 43.5 8 
14 43.5 8 15 43.6664 8 15.5708 44 8 
24 44 7.29986 25 44 7.54296 26 44 7.64708 
27 44 7.85824 27.2847 44 8 16 44.3117 8 
17 44.8173 8 17 45 7.71646 17.383 45 8 
24 45 7.5789 25 45 7.96131 25.0985 45 8 
26 44.5643 8 27 44.1851 8 18 45.3117 8 
18 46 7.09854 19 45.5539 8 19 46 7.43121 
20 45.7896 8 20 46 7.66204 20.5438 46 8 
22.7396 46 8 23 45.8969 8 24 45.389 8 
25 45.0387 8 21 46.1697 8 22 46.2429 8 
16 28 8.96131 16 27.9613 9 15.9015 28 9 
17 28 8.80081 17 27.8008 9 18 28 8.80081 
18 27.8008 9 19 28 8.75654 19 27.7742 9 
20 28 8.81489 20 27.8582 9 20.3628 28 9 
12 29 8.78959 12 28.7247 9 11.5435 29 9 
13 29 8.55394 13 28.5183 9 14 29 8.5 
14 28.5 9 15 29 8.44606 15 28.3649 9 
16 29 8.34207 17 29 8.29986 18 29 8.29986 
19 29 8.16972 21 28.2319 9 22 28.4112 9 
23 28.3955 9 24 29 8.57971 24 28.6883 9 
24.3535 29 9 11 30 8.6237 11 29.4114 9 
10.4114 30 9 12 30 8.21041 25 30 8.01284 
25 29.5579 9 25.4266 30 9 10 31 8.68827 
10 30.4683 9 9.66075 31 9 26 31 8.18188 
26 30.7583 9 26.1697 31 9 10 32 8.31173 
9.28519 32 9 26.457 32 9 9 33 8.71481 
9 32.5 9 8.71481 33 9 26.5 33 9 
9 34 8.5 8.5 34 9 26.543 34 9 
9 35 8.71481 8.71481 35 9 26.7266 35 9 
9 35.4357 9 10 36 8.32376 9.35329 36 9 
26 36 8.05345 27 35.735 9 27 36 8.87468 
27.1061 36 9 10 37 8.54523 9.65793 37 9 
27 37 8.64545 27.2782 37 9 10 38 8.52385 
9.70014 38 9 27 38 8.56331 27.3421 38 9 
10 39 8.29986 9.64708 39 9 27 39 8.32376 
27.6237 39 9 10 40 8.03661 9.58877 40 9 
27 40 8.02119 28 39.7153 9 28 40 8.83111 
28.153 40 9 10 41 8.4083 9.64708 41 9 
27 41 8.01563 28 41 8.63295 28.4018 41 9 
10 42 8.84383 9.89748 42 9 28 42 8.3763 
28.6762 42 9 10 42.1562 9 11 43 8.01732 
10.6454 43 9 28 43 8.02203 29 42.8911 9 
29 43 8.95282 29.0373 43 9 11 43.2782 9 
12 43.457 9 13 43.3529 9 14 43.2999 9 
15 43.3421 9 16 43.6237 9 16 44 8.44244 
16.5886 44 9 28 44 8.48651 28.5792 44 9 
29 43.1123 9 17 44.249 9 18 44.5587 9 
18 45 8.3721 19 44.737 9 19 45 8.68858 
19.5866 45 9 26 45 8.75637 26.3804 45 9 
27 44.829 9 28 44.3759 9 20 45.1827 9 
21 45.4461 9 21 46 8.24166 22 45.5 9 
22 46 8.35501 23 45.4461 9 24 45.3421 9 
25 45.2429 9 26 45.1025 9 10 28 9.8706 
10 27.8658 10 9.6214 28 10 11 28 9.75654 
11 27.7742 10 12 28 9.64545 12 27.7218 10 
13 28 9.58664 13 27.7001 10 14 28 9.58664 
14 27.7001 10 15 28 9.43574 15 27.6471 10 
16 27.543 10 17 27.5 10 18 27.5 10 
19 27.5 10 20 27.543 10 21 28 9.58664 
21 27.8303 10 21.5 28 10 23 28 9.81311 
23 27.8975 10 22.6326 28 10 23.7232 28 10 
10 29 9.5547 9.02783 29 10 11 29 9.23192 
22 28.1697 10 24 28.0544 10 24.6469 29 10 
9 30 9.78959 9 29.0661 10 8.72472 30 10 
10 30 9.24898 25 29.5 10 25.3421 30 10 
9 31 9.55394 8.5183 31 10 26 31 9.41336 
25.7681 31 10 9 32 9.28519 8.31174 32 10 
26 31.5 10 26.2319 32 10 8 33 9.81489 
8 32.666 10 7.85824 33 10 26.457 33 10 
8 34 9.58664 7.70014 34 10 26.6471 34 10 
8 35 9.90146 7.92895 35 10 27 34.7001 10 
27 35 9.61703 27.1697 35 10 8 35.1036 10 
9 36 9.47519 8.6237 36 10 27.457 36 10 
9 36.67 10 9.16972 37 10 27.543 37 10 
9.35292 38 10 27.7681 38 10 9.45704 39 10 
28 38.5 10 28 39 9.58858 28.2319 39 10 
9.5 40 10 28.6045 40 10 9.5 41 10 
29 40.8131 10 29 41 9.84383 29.1025 41 10 
9.72183 42 10 29 42 9.4083 29.3529 42 10 
10 42.3546 10 10.8438 43 10 13 43 9.66204 
12.4562 43 10 13 42.7896 10 14 42.5539 10 
14 43 9.43121 15 42.5539 10 15 43 9.45477 
16 42.8173 10 16 43 9.77092 16.2899 43 10 
29.2782 43 10 11 43.1025 10 12 43.1697 10 
17 43.5 10 17 44 9.36684 18 43.9382 10 
18 44 9.91995 19 43.8876 10 19 44 9.8876 
19.3839 44 10 28.3491 44 10 29 43.4368 10 
20 44.1851 10 20 45 9.21943 21 44.4134 10 
21 45 9.4817 22 44.4367 10 22 45 9.5 
23 44.4817 10 23 45 9.4817 24 44.5 10 
24 45 9.43669 25 44.5 10 25 45 9.35501 
26 44.5 10 26 45 9.17602 27 44.4461 10 
28 44.2104 10 8 28 10.7712 8 27.7937 11 
7.16654 28 11 9 28 10.3013 9 27.594 11 
10 27.5134 11 11 27.5 11 12 27.5 11 
13 27.5 11 14 27.5 11 15 27.5 11 
16 27.5 11 17 27.5 11 18 27.5 11 
19 27.5 11 20 27.543 11 21 27.8303 11 
21.6326 28 11 23 27.7571 11 22.2796 28 11 
24 28 10.5303 24 27.9613 11 24.0387 28 11 
8 29 10.5587 7.17602 29 11 9 29 10.0156 
22 28.1025 11 24.6045 29 11 8 30 10.5539 
7.45477 30 11 25 29.8131 11 25.1025 30 11 
8 31 10.5 7.48171 31 11 25.3955 31 11 
8 32 10.3393 7.44606 32 11 26 32 10.4683 
25.7266 32 11 7.34207 33 11 26 32.5317 11 
26.2319 33 11 7.35292 34 11 26.6045 34 11 
7.65793 35 11 27 34.7165 11 27.1697 35 11 
8 35.5 11 8.34207 36 11 27.457 36 11 
9 37 10.2999 8.64708 37 11 27.6471 37 11 
9 38 10.8008 8.89748 38 11 28 37.662 11 
28 38 10.5435 28.2104 38 11 9 38.1992 11 
9.35292 39 11 28.6045 39 11 9.54296 40 11 
28.8975 40 11 9.66641 41 11 29 40.1992 11 
29.3529 41 11 10 41.8266 11 10 42 10.7931 
10.1615 42 11 14 42 10.6351 13.2436 42 11 
[...]
POINT_DATA 2704
SCALARS scalars unsigned_short
LOOKUP_TABLE default
1 1 1 1 1 1 1 1 1 
1 1 1 1 1 1 1 1 1 
1 1 1 1 1 1 1 1 1 
1 1 1 1 1 1 1 1 1 
1 1 1 1 1 1 1 1 1 
1 1 1 1 1 1 1 1 1 
1 1 1 1 1 1 1 1 1 
1 1 1 1 1 1 1 1 1 
1 1 1 1 1 1 1 1 1 
1 1 1 1 1 1 1 1 1 
1 1 1 1 1 1 1 1 1 
1 1 1 1 1 1 1 1 1 
1 1 1 1 1 1 1 1 1 
1 1 1 1 1 1 1 1 1 
1 1 1 1 1 1 1 1 1 
1 1 1 1 1 1 1 1 1 
1 1 1 1 1 1 1 1 1 
1 1 1 1 1 1 1 1 1 
1 1 1 1 1 1 1 1 1 
1 1 1 1 1 1 1 1 1 
1 1 1 1 1 1 1 1 1 
1 1 1 1 1 1 1 1 1 
1 1 1 1 1 1 1 1 1 
1 1 1 1 1 1 1 1 1 
1 1 1 1 1 1 1 1 1 
1 1 1 1 1 1 1 1 1 
1 1 1 1 1 1 1 1 1 
1 1 1 1 1 1 1 1 1 
1 1 1 1 1 1 1 1 1 
1 1 1 1 1 1 1 1 1 
1 1 1 1 1 1 1 1 1 
1 1 1 1 1 1 1 1 1 
1 1 1 1 1 1 1 1 1 
1 1 1 1 1 1 1 1 1 
1 1 1 1 1 1 1 1 1 
1 1 1 1 1 1 1 1 1 
1 1 1 1 1 1 1 1 1 
1 1 1 1 1 1 1 1 1 
1 1 1 1 1 1 1 1 1 
1 1 1 1 1 1 1 1 1 
1 1 1 1 1 1 1 1 1 
1 1 1 1 1 1 1 1 1 
1 1 1 1 1 1 1 1 1 
1 1 1 1 1 1 1 1 1 
1 1 1 1 1 1 1 1 1 
1 1 1 1 1 1 1 1 1 
1 1 1 1 1 1 1 1 1 
1 1 1 1 1 1 1 1 1 
1 1 1 1 1 1 1 1 1 
1 1 1 1 1 1 1 1 1 
1 1 1 1 1 1 1 1 1 
1 1 1 1 1 1 1 1 1 
1 1 1 1 1 1 1 1 1 
1 1 1 1 1 1 1 1 1 
1 1 1 1 1 1 1 1 1 
1 1 1 1 1 1 1 1 1 
1 1 1 1 1 1 1 1 1 
1 1 1 1 1 1 1 1 1 
1 1 1 1 1 1 1 1 1 
1 1 1 1 1 1 1 1 1 
1 1 1 1 1 1 1 1 1 
1 1 1 1 1 1 1 1 1 
1 1 1 1 1 1 1 1 1 
1 1 1 1 1 1 1 1 1 
1 1 1 1 1 1 1 1 1 
1 1 1 1 1 1 1 1 1 
1 1 1 1 1 1 1 1 1 
1 1 1 1 1 1 1 1 1 
1 1 1 1 1 1 1 1 1 
1 1 1 1 1 1 1 1 1 
1 1 1 1 1 1 1 1 1 
1 1 1 1 1 1 1 1 1 
1 1 1 1 1 1 1 1 1 
1 1 1 1 1 1 1 1 1 
1 1 1 1 1 1 1 1 1 
1 1 1 1 1 1 1 1 1 
1 1 1 1 1 1 1 1 1 
1 1 1 1 1 1 1 1 1 
1 1 1 1 1 1 1 1 1 
1 1 1 1 1 1 1 1 1 
1 1 1 1 1 1 1 1 1 
1 1 1 1 1 1 1 1 1 
1 1 1 1 1 1 1 1 1 
1 1 1 1 1 1 1 1 1 
1 1 1 1 1 1 1 1 1 
1 1 1 1 1 1 1 1 1 
1 1 1 1 1 1 1 1 1 
1 1 1 1 1 1 1 1 1 
1 1 1 1 1 1 1 1 1 
1 1 1 1 1 1 1 1 1 
1 1 1 1 1 1 1 1 1 
1 1 1 1 1 1 1 1 1 
1 1 1 1 1 1 1 1 1 
1 1 1 1 1 1 1 1 1 
1 1 1 1 1 1 1 1 1 
1 1 1 1 1 1 1 1 1 
1 1 1 1 1 1 1 1 1 
1 1 1 1 1 1 1 1 1 
1 1 1 1 1 1 1 1 1 
1 1 1 1 1 1 1 1 1 
1 1 1 1 1 1 1 1 1 
1 1 1 1 1 1 1 1 1 
1 1 1 1 1 1 1 1 1 
1 1 1 1 1 1 1 1 1 
1 1 1 1 1 1 1 1 1 
1 1 1 1 1 1 1 1 1 
1 1 1 1 1 1 1 1 1 
1 1 1 1 1 1 1 1 1 
1 1 1 1 1 1 1 1 1 
1 1 1 1 1 1 1 1 1 
1 1 1 1 1 1 1 1 1 
1 1 1 1 1 1 1 1 1 
1 1 1 1 1 1 1 1 1 
1 1 1 1 1 1 1 1 1 
1 1 1 1 1 1 1 1 1 
1 1 1 1 1 1 1 1 1 
1 1 1 1 1 1 1 1 1 
1 1 1 1 1 1 1 1 1 
1 1 1 1 1 1 1 1 1 
1 1 1 1 1 1 1 1 1 
1 1 1 1 1 1 1 1 1 
1 1 1 1 1 1 1 1 1 
1 1 1 1 1 1 1 1 1 
1 1 1 1 1 1 1 1 1 
1 1 1 1 1 1 1 1 1 
1 1 1 1 1 1 1 1 1 
1 1 1 1 1 1 1 1 1 
1 1 1 1 1 1 1 1 1 
1 1 1 1 1 1 1 1 1 
1 1 1 1 1 1 1 1 1 
1 1 1 1 1 1 1 1 1 
1 1 1 1 1 1 1 1 1 
1 1 1 1 1 1 1 1 1 
1 1 1 1 1 1 1 1 1 
1 1 1 1 1 1 1 1 1 
1 1 1 1 1 1 1 1 1 
1 1 1 1 1 1 1 1 1 
1 1 1 1 1 1 1 1 1 
1 1 1 1 1 1 1 1 1 
1 1 1 1 1 1 1 1 1 
1 1 1 1 1 1 1 1 1 
1 1 1 1 1 1 1 1 1 
1 1 1 1 1 1 1 1 1 
1 1 1 1 1 1 1 1 1 
1 1 1 1 1 1 1 1 1 
1 1 1 1 1 1 1 1 1 
1 1 1 1 1 1 1 1 1 
1 1 1 1 1 1 1 1 1 
1 1 1 1 1 1 1 1 1 
1 1 1 1 1 1 1 1 1 
1 1 1 1 1 1 1 1 1 
1 1 1 1 1 1 1 1 1 
1 1 1 1 1 1 1 1 1 
1 1 1 1 1 1 1 1 1 
1 1 1 1 1 1 1 1 1 
1 1 1 1 1 1 1 1 1 
1 1 1 1 1 1 1 1 1 
1 1 1 1 1 1 1 2 2 
2 2 2 2 2 2 2 2 2 
2 2 2 2 2 2 2 2 2 
2 2 2 2 2 2 2 2 2 
2 2 2 2 2 2 2 2 2 
2 2 2 2 2 2 2 2 2 
2 2 2 2 2 2 2 2 2 
2 2 2 2 2 2 2 2 2 
2 2 2 2 2 2 2 2 2 
2 2 2 2 2 2 2 2 2 
2 2 2 2 2 2 2 2 2 
2 2 2 2 2 2 2 2 2 
2 2 2 2 2 2 2 2 2 
2 2 2 2 2 2 2 2 2 
2 2 2 2 2 2 2 2 2 
2 2 2 2 2 2 2 2 2 
2 2 2 2 2 2 2 2 2 
2 2 2 2 2 2 2 2 2 
2 2 2 2 2 2 2 2 2 
2 2 2 2 2 2 2 2 2 
2 2 2 2 2 2 2 2 2 
2 2 2 2 2 2 2 2 2 
2 2 2 2 2 2 2 2 2 
2 2 2 2 2 2 2 2 2 
2 2 2 2 2 2 2 2 2 
2 2 2 2 2 2 2 2 2 
2 2 2 2 2 2 2 2 2 
2 2 2 2 2 2 2 2 2 
2 2 2 2 2 2 2 2 2 
2 2 2 2 2 2 2 2 2 
2 2 2 2 2 2 2 2 2 
2 2 2 2 2 2 2 2 2 
2 2 2 2 2 2 2 2 2 
2 2 2 2 2 2 2 2 2 
2 2 2 2 2 2 2 2 2 
2 2 2 2 2 2 2 2 2 
2 2 2 2 2 2 2 2 2 
2 2 2 2 2 2 2 2 2 
2 2 2 2 2 2 2 2 2 
2 2 2 2 2 2 2 2 2 
2 2 2 2 2 2 2 2 2 
2 2 2 2 2 2 2 2 2 
2 2 2 2 2 2 2 2 2 
2 2 2 2 2 2 2 2 2 
2 2 2 2 2 2 2 2 2 
2 2 2 2 2 2 2 2 2 
2 2 2 2 2 2 2 2 2 
2 2 2 2 2 2 2 2 2 
2 2 2 2 2 2 2 2 2 
2 2 2 2 2 2 2 2 2 
2 2 2 2 2 2 2 2 2 
2 2 2 2 2 2 2 2 2 
2 2 2 2 2 2 2 2 2 
2 2 2 2 2 2 2 2 2 
2 2 2 2 2 2 2 2 2 
2 2 2 2 2 2 2 2 2 
2 2 2 2 2 2 2 2 2 
2 2 2 2 2 2 2 2 2 
2 2 2 2 2 2 2 2 2 
2 2 2 2 2 2 2 2 2 
2 2 2 2 2 2 2 2 2 
2 2 2 2 2 2 2 2 2 
2 2 2 2 2 2 2 2 2 
2 2 2 2 2 2 2 2 2 
2 2 2 2 2 2 2 2 2 
2 2 2 2 2 2 2 2 2 
2 2 2 2 2 2 2 2 2 
2 2 2 2 2 2 2 2 2 
2 2 2 2 2 2 2 2 2 
2 2 2 2 2 2 2 2 2 
2 2 2 2 2 2 2 2 2 
2 2 2 2 2 2 2 2 2 
2 2 2 2 2 2 2 2 2 
2 2 2 2 2 2 2 2 2 
2 2 2 2 2 2 2 2 2 
2 2 2 2 2 2 2 2 2 
2 2 2 2 2 2 2 2 2 
2 2 2 2 2 2 2 2 2 
2 2 2 2 2 2 2 2 2 
2 2 2 2 2 2 2 2 2 
2 2 2 2 2 2 2 2 2 
2 2 2 2 2 2 2 2 2 
2 2 2 2 2 2 2 2 2 
2 2 2 2 2 2 2 2 2 
2 2 2 2 2 2 2 2 2 
2 2 2 2 2 2 2 2 2 
2 2 2 2 2 2 2 2 2 
2 2 2 2 2 2 2 2 2 
2 2 2 2 2 2 2 2 2 
2 2 2 2 2 2 2 2 2 
2 2 2 2 2 2 2 2 2 
2 2 2 2 2 2 2 2 2 
2 2 2 2 2 2 2 2 2 
2 2 2 2 2 2 2 2 2 
2 2 2 2 2 2 2 2 2 
2 2 2 2 2 2 2 2 2 
2 2 2 2 2 2 2 2 2 
2 2 2 2 2 2 2 2 2 
2 2 2 2 2 2 2 2 2 
2 2 2 2 2 2 2 2 2 
2 2 2 2 2 2 2 2 2 
2 2 2 2 2 2 2 2 2 
2 2 2 2 2 2 2 2 2 
2 2 2 2 2 2 2 2 2 
2 2 2 2 2 2 2 2 2 
2 2 2 2 2 2 2 2 2 
2 2 2 2 2 2 2 2 2 
2 2 2 2 2 2 2 2 2 
2 2 2 2 2 2 2 2 2 
2 2 2 2 2 2 2 2 2 
2 2 2 2 2 2 2 2 2 
2 2 2 2 2 2 2 2 2 
2 2 2 2 2 2 2 2 2 
2 2 2 2 2 2 2 2 2 
2 2 2 2 2 2 2 2 2 
2 2 2 2 2 2 2 2 2 
2 2 2 2 2 2 2 2 2 
2 2 2 2 2 2 2 2 2 
2 2 2 2 2 2 2 2 2 
2 2 2 2 2 2 2 2 2 
2 2 2 2 2 2 2 2 2 
2 2 2 2 2 2 2 2 2 
2 2 2 2 2 2 2 2 2 
2 2 2 2 2 2 2 2 2 
2 2 2 2 2 2 2 2 2 
2 2 2 2 2 2 2 2 2 
2 2 2 2 2 2 2 2 2 
2 2 2 2 2 2 2 2 2 
2 2 2 2 2 2 2 2 2 
2 2 2 2 2 2 2 2 2 
2 2 2 2 2 2 2 2 2 
2 2 2 2 2 2 2 2 2 
2 2 2 2 2 2 2 2 2 
2 2 2 2 2 2 2 2 2 
2 2 2 2 2 2 2 2 2 
2 2 2 2 2 2 2 2 2 
2 2 2 2 2 2 2 2 2 
2 2 2 2 2 2 2 2 2 
2 2 2 2 2 2 2 2 2 
2 2 2 2 2 2 2 2 2 
2 2 2 2 2 2 2 2 2 
2 2 2 2 2 2 2 2 2 
2 2 2 2 2 2 2 2 2 
2 2 2 2 
NORMALS normals float
-0.268906 -0.376543 -0.886513 -0.238031 -0.382641 -0.892708 -0.291991 -0.354594 -0.888259 
0.124563 -0.440125 -0.889255 0.114872 -0.441653 -0.889802 0.201065 -0.439775 -0.875312 
-0.284149 -0.198003 -0.938112 -0.340129 -0.348646 -0.87336 0.0294629 -0.187632 -0.981797 
0.281086 -0.384708 -0.879198 0.271386 -0.284153 -0.919569 0.37724 -0.236894 -0.895305 
-0.425705 -0.379425 -0.82147 -0.421408 -0.39101 -0.818246 -0.453702 -0.376092 -0.807904 
-0.141739 -0.413498 -0.899405 -0.175815 -0.455548 -0.872677 -0.0995389 -0.316952 -0.943204 
-0.300652 -0.375737 -0.876601 -0.0946945 -0.0946945 -0.990992 0.0337867 -0.0285312 -0.999022 
0.243523 -0.0974773 -0.964984 0.389932 -0.22293 -0.893451 0.385486 -0.220388 -0.896008 
0.377703 -0.231958 -0.896402 -0.45569 -0.0972204 -0.884813 -0.588649 -0.0791413 -0.804505 
-0.117826 -0.117826 -0.986019 0 -0.0905643 -0.995891 0 -0.0285475 -0.999592 
0.0285475 0 -0.999592 0.0949201 -0.0651104 -0.993353 0.199969 -0.249787 -0.947428 
0.363353 -0.305638 -0.880091 0.372262 -0.305424 -0.876434 0.381437 -0.274999 -0.882542 
-0.495328 0.0388443 -0.867837 -0.612902 0.0730459 -0.786775 -0.127419 0 -0.991849 
0 0 -1 0 0 -1 0 0 -1 
0 -0.0285475 -0.999592 0.118172 -0.0899297 -0.988913 0.415649 -0.0993378 -0.904084 
0.461539 -0.0724733 -0.884155 -0.577087 0.144748 -0.803753 -0.672324 0.163179 -0.722048 
-0.145871 0.0895956 -0.985238 0 0.0285475 -0.999592 0 0 -1 
0 0 -1 0 0 -1 0.118653 0 -0.992936 
0.41751 -0.0313368 -0.908132 0.461539 -0.0724733 -0.884155 -0.585212 0.368894 -0.722111 
-0.551951 0.407135 -0.72773 -0.234697 0.376404 -0.896235 -0.0926701 0.225583 -0.969806 
-0.028346 0.118605 -0.992537 0 0.0375017 -0.999297 0 0 -1 
0.0905643 0 -0.995891 0.316952 -0.0995389 -0.943204 0.375737 -0.300652 -0.876601 
-0.307013 0.572945 -0.759919 -0.295971 0.675426 -0.675426 -0.291058 0.668827 -0.684073 
-0.222225 0.507084 -0.832756 -0.130588 0.197637 -0.971538 -0.0374865 0.0285274 -0.99889 
0.0285475 0 -0.999592 0.0946945 -0.0946945 -0.990992 0.347833 -0.346136 -0.871322 
0.196183 -0.312344 -0.929491 0.368318 -0.335253 -0.867149 0.347833 -0.346136 -0.871322 
0.386909 -0.299157 -0.872242 -0.295039 0.683201 -0.667974 -0.364181 0.654376 -0.662695 
-0.533788 0.551015 -0.641446 -0.498137 0.477429 -0.723824 -0.191526 0.191526 -0.962619 
-0.028785 0.037825 -0.99887 0 -0.0285475 -0.999592 0.118172 -0.0899297 -0.988913 
0.415649 -0.0993378 -0.904084 0.48731 -0.0635765 -0.870912 -0.550678 0.530073 -0.644807 
-0.537877 0.60075 -0.591428 -0.488512 0.559972 -0.669169 -0.203131 0.268436 -0.941637 
-0.0384542 0.1609 -0.986221 0.120548 0.158407 -0.979987 0.427368 0.149226 -0.891677 
0.509985 0.154721 -0.846154 -0.52919 0.620636 -0.578592 -0.427714 0.738804 -0.520797 
-0.386875 0.765652 -0.513911 -0.117534 0.716944 -0.687152 0.118554 0.699947 -0.704286 
0.369976 0.632163 -0.680799 0.424473 0.560841 -0.710831 -0.120533 0.824253 -0.553244 
0.114266 0.807316 -0.578951 -0.272159 -0.400534 -0.87493 -0.248555 -0.423427 -0.871166 
-0.347191 -0.381878 -0.856521 -0.0683194 -0.416739 -0.906455 -0.0550105 -0.468259 -0.881877 
0 -0.417715 -0.908578 0 -0.462756 -0.886486 0 -0.417715 -0.908578 
0 -0.462756 -0.886486 0 -0.417715 -0.908578 0 -0.462756 -0.886486 
0 -0.417715 -0.908578 0 -0.462756 -0.886486 0 -0.417715 -0.908578 
0 -0.462756 -0.886486 0 -0.417715 -0.908578 0 -0.462756 -0.886486 
0.0993378 -0.415649 -0.904084 0.0724733 -0.461539 -0.884155 0.339222 -0.339222 -0.877415 
0.303691 -0.351753 -0.885461 0.351753 -0.303691 -0.885461 -0.510782 -0.0335485 -0.859056 
-0.510094 -0.0478205 -0.858789 -0.513697 -0.0329379 -0.857339 -0.258605 -0.0962808 -0.961173 
-0.0566238 -0.118463 -0.991343 0 -0.14646 -0.989217 0 -0.205925 -0.978568 
0 -0.205925 -0.978568 0 -0.14646 -0.989217 0 -0.118653 -0.992936 
0 -0.118653 -0.992936 0.117826 -0.117826 -0.986019 0.414167 -0.130069 -0.900859 
0.457945 -0.143818 -0.87727 -0.51518 -0.0175827 -0.856901 -0.501146 0.166081 -0.849276 
-0.355484 0.0674851 -0.932243 -0.118653 0 -0.992936 -0.0946945 -0.0946945 -0.990992 
-0.0684584 -0.317786 -0.945688 0.067754 -0.345536 -0.935956 0.0934459 -0.186892 -0.977926 
0.0284303 -0.0905277 -0.995488 0 -0.0285475 -0.999592 0.0905643 0 -0.995891 
0.316952 -0.0995389 -0.943204 0.35462 -0.278157 -0.892678 -0.447321 -0.072564 -0.891425 
-0.560608 -0.0136445 -0.827969 -0.204531 -0.116145 -0.971945 -0.312344 -0.196183 -0.929491 
0.25949 -0.401988 -0.878106 0.169553 -0.251245 -0.952958 0.0949201 -0.0651104 -0.993353 
0.0570253 0 -0.998373 0.124323 -0.0648983 -0.990117 0.326807 -0.286615 -0.900583 
0.21191 -0.158748 -0.96431 0.235207 -0.0806699 -0.968592 0.221174 -0.15228 -0.963272 
0.281412 -0.046337 -0.958468 -0.423832 -0.361113 -0.830641 -0.638031 -0.270885 -0.720789 
-0.200959 -0.409194 -0.890043 -0.335253 -0.368318 -0.867149 0.385486 -0.220388 -0.896008 
0.243523 -0.0974773 -0.964984 0.0905277 -0.0284303 -0.995488 0.158953 0.0350629 -0.986663 
0.338588 0.159315 -0.92735 0.336841 0.240628 -0.910295 0.275135 0.0604726 -0.959502 
-0.751525 -0.27937 -0.59763 -0.742745 -0.276564 -0.609789 -0.776482 -0.273427 -0.567726 
0.273727 -0.254598 -0.927499 0.183056 -0.0935146 -0.978645 0.297418 0 -0.954747 
0.459576 0 -0.888139 0.45784 0.00932022 -0.888986 -0.761961 -0.0429885 -0.646195 
-0.82095 -0.0597764 -0.567862 0.339253 -0.0987259 -0.9355 0.242719 -0.0634498 -0.968019 
0.459347 -0.0155258 -0.888121 0.359791 -0.256942 -0.896957 0.382393 -0.29341 -0.876177 
-0.744148 0.194474 -0.63908 -0.757537 0.203131 -0.620384 0.41751 -0.0313368 -0.908132 
0.146401 -0.0282399 -0.988822 0.185406 -0.156293 -0.970153 0.419409 -0.285147 -0.861851 
0.428796 -0.25602 -0.866364 0.433381 -0.223197 -0.873135 -0.766505 0.250816 -0.591238 
-0.779885 0.259276 -0.569697 0.415649 -0.0993378 -0.904084 0.118172 -0.0899297 -0.988913 
0.118463 -0.0566238 -0.991343 0.416739 -0.0683194 -0.906455 0.46205 -0.0552136 -0.885134 
-0.584084 0.402078 -0.705109 -0.772595 0.272877 -0.573267 0.368318 -0.335253 -0.867149 
0.196183 -0.312344 -0.929491 0.207742 -0.0930467 -0.973748 0.43661 0 -0.899651 
0.46897 0 -0.883214 -0.465464 0.691242 -0.552746 -0.489292 0.676788 -0.550047 
-0.287015 0.764886 -0.57669 0.406481 -0.0958885 -0.908614 0.475931 0 -0.879483 
0.482302 0 -0.876005 -0.458619 0.710782 -0.533345 -0.195822 0.904137 -0.379723 
-0.220027 0.950129 -0.221006 -0.54571 0.830848 -0.109052 -0.633065 0.77107 -0.0684152 
0.493028 -0.00777973 -0.869979 0.491586 0.0768358 -0.867433 0.492371 0.0865269 -0.866074 
-0.673989 0.738143 0.0297229 -0.627865 0.773063 0.0903252 0.53757 0.200174 -0.819115 
0.547167 0.341235 -0.764308 0.54872 0.353061 -0.757796 -0.548474 0.820223 0.162512 
-0.464267 0.861108 -0.207242 -0.436152 0.858852 0.268596 0.401381 0.640546 -0.654671 
0.489822 0.716007 -0.497401 0.490356 0.740424 -0.459699 0.565337 0.421988 -0.708745 
-0.415788 0.866987 0.274687 -0.149168 0.946547 0.286003 -0.059066 0.980376 0.188078 
0.10889 0.991299 -0.0739521 0.441901 0.794907 -0.415747 -0.181924 -0.520926 -0.833991 
-0.155779 -0.571162 -0.80592 -0.197235 -0.524015 -0.828557 -0.0296947 -0.589281 -0.807382 
-0.000660388 -0.69436 -0.719627 0.0879472 -0.637081 -0.765763 0.0947537 -0.732026 -0.674655 
0.26683 -0.649281 -0.712205 0.266796 -0.662487 -0.699951 0.27965 -0.658279 -0.698903 
-0.232445 -0.475227 -0.848604 -0.222072 -0.526418 -0.820712 -0.284637 -0.508738 -0.812507 
-0.0668558 -0.456835 -0.887036 -0.0643316 -0.579428 -0.81248 0 -0.448504 -0.893781 
-0.0215495 -0.56053 -0.827854 0 -0.427548 -0.903993 -0.0237897 -0.512416 -0.858408 
0 -0.417715 -0.908578 -0.00782681 -0.488283 -0.872651 -0.0313368 -0.41751 -0.908132 
-0.0543561 -0.487576 -0.871387 -0.0985199 -0.344647 -0.933548 -0.185742 -0.472805 -0.861368 
-0.0932727 -0.196226 -0.976113 -0.0282399 -0.146401 -0.988822 0.0282022 -0.155063 -0.987502 
0.102192 -0.225372 -0.968898 0.33989 -0.586198 -0.735423 0.227546 -0.417267 -0.879836 
0.484027 -0.636307 -0.600693 -0.437699 -0.440016 -0.784095 -0.439883 -0.455769 -0.773807 
-0.459515 -0.43803 -0.772642 -0.198297 -0.414032 -0.888401 -0.301275 -0.496507 -0.814073 
-0.0909205 -0.293916 -0.951497 -0.0277661 -0.232358 -0.972234 0 -0.232448 -0.972609 
0 -0.232448 -0.972609 0 -0.232448 -0.972609 0 -0.232448 -0.972609 
0 -0.205925 -0.978568 0 -0.14646 -0.989217 0 -0.0905643 -0.995891 
0 -0.0285475 -0.999592 0 -0.0285475 -0.999592 0.0373162 -0.0993429 -0.994353 
0.485832 -0.635694 -0.599884 0.257124 -0.24697 -0.934287 0.710047 -0.432376 -0.555774 
-0.422235 -0.318803 -0.848577 -0.556937 -0.335857 -0.75962 -0.170699 -0.40725 -0.897223 
-0.0310292 -0.4364 -0.899218 0 -0.417715 -0.908578 0 -0.417715 -0.908578 
0 -0.417715 -0.908578 0 -0.417715 -0.908578 0 -0.417715 -0.908578 
0 -0.417715 -0.908578 0.0313368 -0.41751 -0.908132 0.0995389 -0.316952 -0.943204 
0.0946945 -0.0946945 -0.990992 0.0285475 0 -0.999592 0 0 -1 
0.156385 -0.0373751 -0.986989 0.734268 -0.385442 -0.558825 0.665176 -0.109048 -0.738681 
0.769324 -0.112501 -0.628876 -0.582516 -0.290781 -0.759027 -0.59833 -0.317892 -0.73549 
-0.60835 -0.287912 -0.739606 -0.452107 -0.311847 -0.835673 0.316952 -0.0995389 -0.943204 
0.0905643 0 -0.995891 0 0 -1 0.155124 0 -0.987895 
0.653502 0 -0.756925 0.756925 0 -0.653502 -0.616227 0 -0.787569 
-0.662787 0 -0.748808 0.414167 -0.130069 -0.900859 0.117826 -0.117826 -0.986019 
0 -0.0905643 -0.995891 0.155124 0 -0.987895 0.645284 0.0608632 -0.761514 
0.745022 0.0530286 -0.664929 -0.594651 0.28762 -0.750776 -0.615683 0.285853 -0.734318 
-0.540976 0.210501 -0.814269 0.342943 -0.309119 -0.887038 0.135035 -0.327216 -0.935251 
0.127708 -0.222775 -0.966469 0.299285 0 -0.954164 0.636752 0.114168 -0.76257 
0.661503 0.104711 -0.742596 -0.623138 0.286962 -0.727566 -0.657148 0.220545 -0.720774 
-0.644835 0.0686474 -0.761233 0.327987 0 -0.944682 0.451991 0 -0.892023 
0.567615 -0.0451299 -0.822057 0.607511 0.0177561 -0.794113 -0.713275 -0.203346 -0.670738 
-0.758635 -0.0110297 -0.651423 0.303412 0.275771 -0.912081 0.195459 0.220282 -0.955652 
0.273142 0 -0.961974 0.562569 -0.0756761 -0.82328 0.496497 -0.164312 -0.852345 
0.548286 -0.16154 -0.820541 -0.832697 -0.136006 -0.536767 0.461571 0 -0.887103 
0.259692 0.0303642 -0.965214 0.0569151 0.062157 -0.996442 0.118653 0 -0.992936 
0.45569 -0.0972204 -0.884813 0.586474 -0.116594 -0.801532 -0.851749 -0.15095 -0.501735 
0.356051 -0.292123 -0.887633 0.158347 -0.0939218 -0.982906 0.118653 0 -0.992936 
0.376797 -0.0668797 -0.923879 0.558783 -0.159414 -0.813848 -0.832181 0.0510637 -0.552148 
0.344647 -0.0985199 -0.933548 0.14646 0 -0.989217 0.269475 -0.0302798 -0.962531 
0.541293 -0.120133 -0.832208 -0.767424 0.258772 -0.586598 -0.741952 0.236056 -0.627522 
0.41751 -0.0313368 -0.908132 0.178941 0 -0.98386 0.273143 -0.0305019 -0.96149 
0.504357 -0.119403 -0.8552 -0.766398 0.245827 -0.593467 -0.751982 0.274429 -0.599342 
0.417715 0 -0.908578 0.14646 0 -0.989217 0.158719 -0.0645766 -0.98521 
0.504765 -0.128036 -0.853709 0.398003 -0.222875 -0.889899 0.485751 -0.260349 -0.834424 
-0.648596 0.617642 -0.444795 -0.644566 0.624544 -0.440999 0.417715 0 -0.908578 
0.118605 0.028346 -0.992537 0.0569151 0.062157 -0.996442 0.269374 0.0407686 -0.962172 
0.55219 0.00184502 -0.833716 -0.245298 0.949991 -0.193253 -0.0375017 0.999297 0 
-0.0990076 0.990997 0.0901193 -0.382625 0.89599 0.225389 -0.494135 0.797915 0.3452 
0.441515 0.126983 -0.888223 0.211412 0.230501 -0.949829 0.180119 0.398007 -0.899526 
0.343102 0.500297 -0.794974 0.393401 0.510451 -0.764641 -0.506979 0.742286 0.43816 
-0.39894 0.75872 0.514967 -0.443436 0.783862 0.434655 -0.367622 0.744775 0.556924 
0.486684 0.591007 -0.643311 0.357436 0.725707 -0.587868 0.354765 0.735579 -0.577118 
0.288704 0.633119 -0.718199 0.360672 0.559155 -0.7465 -0.303988 0.72734 0.615279 
-0.411652 0.855943 0.312897 -0.211171 0.749261 0.627705 -0.182247 0.867544 0.462767 
-0.273395 0.801199 0.532292 -0.215543 0.870893 0.441686 -0.243621 0.83367 0.495624 
0.360631 0.925456 0.11609 0.438894 0.898199 0.0247168 0.439407 0.822167 -0.361889 
0.355808 0.741951 -0.568251 -0.206595 0.872565 0.442661 0.121947 0.950948 0.2843 
-0.232508 -0.714051 -0.660357 -0.23321 -0.725425 -0.64759 -0.23432 -0.718933 -0.654392 
-0.0712721 -0.700051 -0.710527 -0.072398 -0.778757 -0.623134 -0.0207471 -0.701685 -0.712185 
-0.0136585 -0.780733 -0.624716 0.00065005 -0.729959 -0.683491 0.029377 -0.811957 -0.582978 
0.183237 -0.802066 -0.568431 0.213046 -0.828672 -0.517604 0.244462 -0.834575 -0.493683 
-0.293427 -0.561085 -0.774005 -0.253968 -0.594778 -0.762719 -0.328476 -0.520402 -0.788217 
-0.132926 -0.648774 -0.749282 -0.0804107 -0.699121 -0.710468 -0.0493442 -0.689849 -0.72227 
-0.0615951 -0.721777 -0.689379 -0.0770624 -0.648541 -0.757269 -0.190462 -0.701288 -0.686964 
-0.0725646 -0.552793 -0.830153 -0.0220088 -0.50827 -0.860916 -0.0647666 -0.507326 -0.859317 
-0.198041 -0.505766 -0.839631 0.264794 -0.867988 -0.420097 0.0905637 -0.940694 -0.326945 
0.12318 -0.869677 -0.478005 0.475956 -0.703322 -0.528019 0.472206 -0.732589 -0.490239 
0.574502 -0.720982 -0.38747 -0.431479 -0.529013 -0.730734 -0.404558 -0.482413 -0.776924 
-0.484744 -0.452048 -0.748783 -0.339491 -0.518265 -0.78495 0.490333 -0.639579 -0.592041 
0.689695 -0.698865 -0.189497 0.735044 -0.671901 -0.090882 -0.614446 -0.364547 -0.699687 
-0.559154 -0.39032 -0.731435 -0.625501 -0.331213 -0.706432 0.780294 -0.465888 -0.41724 
0.837897 -0.539878 0.0803735 0.868355 -0.486288 0.0973864 -0.621987 -0.340036 -0.705342 
-0.66445 -0.333755 -0.668665 0.982207 -0.18771 -0.00585309 -0.671263 -0.293363 -0.680694 
-0.668722 -0.324996 -0.668722 -0.682669 -0.294214 -0.668881 0.990261 -0.056562 -0.127215 
-0.699398 0 -0.714733 -0.72315 0 -0.690691 0.962556 -0.127972 -0.238975 
-0.671327 0.317029 -0.669935 -0.685926 0.323787 -0.651665 0.842236 -0.263993 -0.47005 
-0.683349 0.378589 -0.624264 -0.670917 0.274048 -0.689034 -0.701588 0.378785 -0.60357 
0.57724 -0.0531953 -0.81484 0.791774 -0.276796 -0.544497 0.762298 -0.252054 -0.59613 
0.786907 -0.258884 -0.56014 -0.787811 0.0811541 -0.610547 -0.817451 0.154345 -0.554934 
0.773064 -0.122606 -0.622366 0.853005 -0.11557 -0.508946 -0.845106 -0.0680946 -0.530244 
-0.874575 -0.00782083 -0.484827 0.760567 -0.129496 -0.636215 0.8222 -0.160316 -0.546156 
-0.866548 -0.135641 -0.480309 -0.927722 -0.0671579 -0.36718 0.659308 -0.223039 -0.71803 